<?xml version="1.0"?>
<VTKFile type="UnstructuredGrid"  version="0.1"  >
<UnstructuredGrid>
<Piece  NumberOfPoints="7979" NumberOfCells="15285">
<Points>
<DataArray  type="Float64"  NumberOfComponents="3"  format="ascii">0 0 0  450 0 0  450 225 0  0 225 0  224 0 0  226 0 0  225 1 0  226 1 0  230 0.5 0  234 0 0  236 0 0  235 1 0  236 1 0  237 0.5 0  238 0 0  240 0 0  239 1 0  240 1 0  450 9.782608695661354 0  450 19.56521739132493 0  450 29.34782608698428 0  450 39.13043478263055 0  450 48.91304347827662 0  450 58.69565217392267 0  450 68.47826086956874 0  450 78.26086956521479 0  450 88.04347826086087 0  450 97.82608695650693 0  450 107.608695652153 0  450 117.3913043478299 0  450 127.1739130435357 0  450 136.9565217391855 0  450 146.7391304348315 0  450 156.5217391304776 0  450 166.3043478261236 0  450 176.0869565217697 0  450 185.8695652174157 0  450 195.6521739130618 0  450 205.4347826087078 0  450 215.2173913043539 0  440.217391304352 225 0  430.4347826087039 225 0  420.6521739130558 225 0  410.8695652174077 225 0  401.0869565217596 225 0  391.3043478261116 225 0  381.5217391304635 225 0  371.7391304348154 225 0  361.9565217391673 225 0  352.1739130435193 225 0  342.3913043478713 225 0  332.6086956522231 225 0  322.8260869565751 225 0  313.043478260927 225 0  303.2608695652789 225 0  293.4782608696308 225 0  283.6956521739828 225 0  273.9130434783347 225 0  264.1304347826866 225 0  254.3478260870386 225 0  244.5652173913905 225 0  234.7826086957424 225 0  225.0000000000888 225 0  215.2173913043845 225 0  205.4347826086747 225 0  195.6521739129687 225 0  185.8695652173134 225 0  176.0869565216654 225 0  166.3043478260173 225 0  156.5217391303692 225 0  146.7391304347212 225 0  136.956521739073 225 0  127.173913043425 225 0  117.3913043477769 225 0  107.6086956521288 225 0  97.82608695648076 225 0  88.04347826083261 225 0  78.26086956518463 225 0  68.47826086953654 225 0  58.69565217388845 225 0  48.91304347824035 225 0  39.13043478259226 225 0  29.34782608694422 225 0  19.56521739129619 225 0  9.782608695648094 225 0  0 215.2173913043519 0  0 205.4347826087039 0  0 195.6521739130558 0  0 185.8695652174077 0  0 176.0869565217596 0  0 166.3043478261116 0  0 156.5217391304635 0  0 146.7391304348154 0  0 136.9565217391674 0  0 127.1739130435193 0  0 117.3913043478712 0  0 107.6086956521923 0  0 97.82608695648437 0  0 88.0434782608327 0  0 78.26086956518458 0  0 68.47826086953651 0  0 58.69565217388845 0  0 48.91304347824038 0  0 39.13043478259232 0  0 29.34782608694422 0  0 19.56521739129613 0  0 9.782608695648094 0  224.0020089923861 0.063355731562034 0  224.0078669237896 0.1251876954392177 0  224.0173189540956 0.1853050512541301 0  224.0301104026608 0.243545003999721 0  224.0459888465302 0.2997711111084815 0  224.0647058707711 0.3538712927462628 0  224.0860185776573 0.4057560345977113 0  224.1096908286717 0.4553565410189064 0  224.1354942695903 0.5026229621582694 0  224.1632091334853 0.5475226440227238 0  224.1926249250355 0.5900385481695689 0  224.2235407638306 0.6301674813628185 0  224.2557657849086 0.6679187323973781 0  224.2891195163637 0.7033128308121627 0  224.3234314721495 0.736379675929636 0  224.3585416405058 0.7671578540528868 0  224.3943001347868 0.7956932029876407 0  224.4305670884679 0.8220378089017952 0  224.4672124255662 0.8462490180372396 0  224.5041156045838 0.8683885457459335 0  224.5411652540955 0.8885216237947197 0  224.5782590182344 0.9067163527252478 0  224.6153028595457 0.9230428538948069 0  224.6522110523273 0.9375728493705031 0  224.6889055603574 0.9503790031474065 0  224.72531568381 0.961534464509318 0  224.7613777251139 0.9711124599798758 0  224.7970345748618 0.9791859048201496 0  224.8322353596756 0.9858270768531486 0  224.8669348413503 0.9911072916458271 0  224.9010933583037 0.9950967170221953 0  224.9346762707545 0.997864124216049 0  224.9676536620218 0.9994767202988784 0  225.0323463381051 0.99947672029477 0  225.0653237301236 0.9978641241585631 0  225.0989066431223 0.9950967168804671 0  225.1330651602428 0.9911072914319439 0  225.1677646419726 0.9858270765726634 0  225.2029654269951 0.979185904435247 0  225.2386222604036 0.9711124635385281 0  225.2746843192525 0.9615344636344383 0  225.3110944429274 0.9503790020721721 0  225.3477889498758 0.9375728485532481 0  225.3846971416895 0.9230428533800188 0  225.4217409837351 0.9067163518091972 0  225.4588347483695 0.888521622521743 0  225.4958843983252 0.8683885440847672 0  225.5327875773925 0.846249016174439 0  225.5694329140487 0.8220378071585059 0  225.6056998679296 0.7956932009198679 0  225.641458362852 0.7671578512452597 0  225.6765685310523 0.736379672987914 0  225.7108804867128 0.7033128277025616 0  225.7442342180933 0.6679187290524371 0  225.7764592391041 0.6301674777468723 0  225.8073750777669 0.5900385443348745 0  225.8367908685816 0.5475226408638091 0  225.8645057322388 0.502622959012232 0  225.8903091726418 0.4553565384507763 0  225.9139814234573 0.4057560320869432 0  225.935294130113 0.3538712904094632 0  225.9540111540606 0.2997711092283469 0  225.9698895977127 0.2435450025123902 0  225.9826810461417 0.1853050499957777 0  225.9921330763121 0.1251876946332835 0  225.9979910076399 0.06335573115285377 0  9.724657309557664 0 0  19.02990561489478 0 0  27.93382974437208 0 0  36.4537404975454 0 0  44.60620016225933 0 0  52.40705568240647 0 0  59.87147154317288 0 0  67.01395653385165 0 0  73.84839875777189 0 0  80.38807968606275 0 0  86.64571284056197 0 0  92.63346328245085 0 0  98.36297046378698 0 0  103.8453721348713 0 0  109.0913252627834 0 0  114.1110282135623 0 0  118.914238357087 0 0  123.5102929000238 0 0  127.9081253730336 0 0  132.1162857391113 0 0  136.1429549088198 0 0  139.9959585537756 0 0  143.6827874356201 0 0  147.2106089691988 0 0  150.5862812955824 0 0  153.8163648770172 0 0  156.9071395455719 0 0  159.8646136931983 0 0  162.6945358741549 0 0  165.4024075759797 0 0  167.9934921069113 0 0  170.4728273952023 0 0  172.8452319994138 0 0  175.1153183143408 0 0  177.2874990632585 0 0  179.3659966326073 0 0  181.3548516892633 0 0  183.2579303976732 0 0  185.0789313485823 0 0  186.8213956698771 0 0  188.4887097667209 0 0  190.0841148690362 0 0  191.6107125473505 0 0  193.0714699966116 0 0  194.4692272649741 0 0  195.8067009978392 0 0  197.0864915810537 0 0  198.3110864738335 0 0  199.482866160831 0 0  200.6041087807559 0 0  201.6769937811462 0 0  202.7036067754679 0 0  203.6859433789877 0 0  204.6259132873555 0 0  205.5253433791829 0 0  206.3859826682087 0 0  207.2095035890445 0 0  207.997507257115 0 0  208.7515253637376 0 0  209.4730237734672 0 0  210.1634049499469 0 0  210.8240109907306 0 0  211.4561260143591 0 0  212.060978785667 0 0  212.6397450141027 0 0  213.1935499460044 0 0  213.7234700471982 0 0  214.2305354641678 0 0  214.7157318316905 0 0  215.1800023503719 0 0  215.6242495509076 0 0  216.0493371210115 0 0  216.4560911509623 0 0  216.845302440869 0 0  217.21772760454 0 0  217.5740906239334 0 0  217.9150841433838 0 0  218.241371125184 0 0  218.5535858412163 0 0  218.8523351331747 0 0  219.1381997902312 0 0  219.4117355022302 0 0  219.6734739944899 0 0  219.9239241281105 0 0  220.1635726506841 0 0  220.3928854518087 0 0  220.61230834362 0 0  220.8222678864888 0 0  221.0231721146276 0 0  221.2154116317471 0 0  221.3993601212488 0 0  221.5753751763791 0 0  221.7437989502984 0 0  221.9049588503808 0 0  222.0591681367364 0 0  222.2067265977104 0 0  222.3479210690713 0 0  222.4830260263524 0 0  222.6123041189778 0 0  222.7360065812347 0 0  222.8543739478548 0 0  222.9676363098526 0 0  223.0760138277523 0 0  223.1797171723988 0 0  223.2789479251624 0 0  223.3738989996738 0 0  223.4647549720281 0 0  223.5516924491118 0 0  223.6348804347739 0 0  223.7144806430749 0 0  223.7906478148444 0 0  223.8635299801972 0 0  223.9332688577469 0 0  234.0020089923861 0.063355731562034 0  234.0078669237896 0.1251876954392177 0  234.0173189540956 0.1853050512541301 0  234.0301104026608 0.243545003999721 0  234.0459888465302 0.2997711111084815 0  234.0647058707711 0.3538712927462628 0  234.0860185776573 0.4057560345977113 0  234.1096908286717 0.4553565410189064 0  234.1354942695903 0.5026229621582694 0  234.1632091334853 0.5475226440227238 0  234.1926249250355 0.5900385481695689 0  234.2235407638306 0.6301674813628185 0  234.2557657849086 0.6679187323973781 0  234.2891195163637 0.7033128308121627 0  234.3234314721495 0.736379675929636 0  234.3585416405058 0.7671578540528868 0  234.3943001347868 0.7956932029876407 0  234.4305670884679 0.8220378089017952 0  234.4672124255662 0.8462490180372396 0  234.5041156045838 0.8683885457459335 0  234.5411652540955 0.8885216237947197 0  234.5782590182344 0.9067163527252478 0  234.6153028595457 0.9230428538948069 0  234.6522110523273 0.9375728493705031 0  234.6889055603574 0.9503790031474065 0  234.72531568381 0.961534464509318 0  234.7613777251139 0.9711124599798758 0  234.7970345748618 0.9791859048201496 0  234.8322353596756 0.9858270768531486 0  234.8669348413503 0.9911072916458271 0  234.9010933583037 0.9950967170221953 0  234.9346762707545 0.997864124216049 0  234.9676536620218 0.9994767202988784 0  235.0323463381051 0.99947672029477 0  235.0653237301236 0.9978641241585631 0  235.0989066431223 0.9950967168804671 0  235.1330651602428 0.9911072914319439 0  235.1677646419726 0.9858270765726634 0  235.2029654269951 0.979185904435247 0  235.2386222604036 0.9711124635385281 0  235.2746843192525 0.9615344636344383 0  235.3110944429274 0.9503790020721721 0  235.3477889498758 0.9375728485532481 0  235.3846971416895 0.9230428533800188 0  235.4217409837351 0.9067163518091972 0  235.4588347483695 0.888521622521743 0  235.4958843983252 0.8683885440847672 0  235.5327875773925 0.846249016174439 0  235.5694329140487 0.8220378071585059 0  235.6056998679296 0.7956932009198679 0  235.641458362852 0.7671578512452597 0  235.6765685310523 0.736379672987914 0  235.7108804867128 0.7033128277025616 0  235.7442342180933 0.6679187290524371 0  235.7764592391041 0.6301674777468723 0  235.8073750777669 0.5900385443348745 0 
[...]
<PointData  Scalars="foodini"> 
<DataArray  type="Float64"  Name="foodini"  format="ascii">-1.0000000000000002e+00  1.0000000000000000e+00  9.9999999999999989e-01  -1.0000000000000000e+00  0.0000000000000000e+00  0.0000000000000000e+00  0.0000000000000000e+00  4.2919993405681579e-04  1.1247163520998169e-02  0.0000000000000000e+00  0.0000000000000000e+00  0.0000000000000000e+00  9.9689372549203840e-03  1.3290511071640658e-02  0.0000000000000000e+00  0.0000000000000000e+00  0.0000000000000000e+00  1.9971232749366238e-02  9.9999999999999989e-01  1.0000000000000000e+00  1.0000000000000000e+00  1.0000000000000000e+00  1.0000000000000000e+00  1.0000000000000000e+00  1.0000000000000000e+00  1.0000000000000000e+00  1.0000000000000000e+00  1.0000000000000000e+00  9.9999999999999989e-01  1.0000000000000002e+00  1.0000000000000000e+00  1.0000000000000002e+00  9.9999999999999989e-01  1.0000000000000000e+00  1.0000000000000000e+00  1.0000000000000000e+00  1.0000000000000000e+00  1.0000000000000000e+00  1.0000000000000000e+00  1.0000000000000000e+00  9.5649299844632185e-01  9.1298609002346809e-01  8.6947936993372210e-01  8.2597293437036301e-01  7.8246688513766161e-01  7.3896132804815151e-01  6.9545637474118016e-01  6.5195214373297716e-01  6.0844875964467882e-01  5.6494635424836459e-01  5.2144506552093872e-01  4.7794503619235296e-01  4.3444641251836874e-01  3.9094934174689078e-01  3.4745396943823370e-01  3.0396043573250597e-01  2.6046887262582852e-01  2.1697939753207945e-01  1.7349211212446108e-01  1.3000709694999171e-01  8.6524408966548449e-02  4.3044078812498596e-02  -4.3388997496390737e-04  -4.3909521238561788e-02  -8.7382864526104498e-02  -1.3085399474688797e-01  -1.7432300691927427e-01  -2.1779001385955576e-01  -2.6125514198187411e-01  -3.0471852702702279e-01  -3.4818030981978715e-01  -3.9164063421690526e-01  -4.3509964026690029e-01  -4.7855746771986313e-01  -5.2201424781290773e-01  -5.6547010613447724e-01  -6.0892515962692983e-01  -6.5237951776595704e-01  -6.9583328122190502e-01  -7.3928654331637123e-01  -7.8273938976313029e-01  -8.2619190017247623e-01  -8.6964414838641013e-01  -9.1309620425998150e-01  -9.5654813346097611e-01  -9.9999999999999989e-01  -1.0000000000000000e+00  -1.0000000000000000e+00  -1.0000000000000000e+00  -9.9999999999999989e-01  -1.0000000000000000e+00  -1.0000000000000000e+00  -1.0000000000000002e+00  -1.0000000000000000e+00  -1.0000000000000000e+00  -9.9999999999999989e-01  -9.9999999999999989e-01  -1.0000000000000000e+00  -1.0000000000000000e+00  -1.0000000000000000e+00  -1.0000000000000000e+00  -1.0000000000000000e+00  -1.0000000000000000e+00  -1.0000000000000000e+00  -9.9999999999999989e-01  -9.9999999999999989e-01  -1.0000000000000000e+00  0.0000000000000000e+00  0.0000000000000000e+00  0.0000000000000000e+00  0.0000000000000000e+00  0.0000000000000000e+00  0.0000000000000000e+00  0.0000000000000000e+00  0.0000000000000000e+00  0.0000000000000000e+00  0.0000000000000000e+00  0.0000000000000000e+00  0.0000000000000000e+00  0.0000000000000000e+00  0.0000000000000000e+00  0.0000000000000000e+00  0.0000000000000000e+00  0.0000000000000000e+00  0.0000000000000000e+00  0.0000000000000000e+00  0.0000000000000000e+00  0.0000000000000000e+00  0.0000000000000000e+00  0.0000000000000000e+00  0.0000000000000000e+00  0.0000000000000000e+00  0.0000000000000000e+00  0.0000000000000000e+00  0.0000000000000000e+00  0.0000000000000000e+00  0.0000000000000000e+00  0.0000000000000000e+00  0.0000000000000000e+00  0.0000000000000000e+00  0.0000000000000000e+00  0.0000000000000000e+00  0.0000000000000000e+00  0.0000000000000000e+00  0.0000000000000000e+00  0.0000000000000000e+00  0.0000000000000000e+00  0.0000000000000000e+00  0.0000000000000000e+00  0.0000000000000000e+00  0.0000000000000000e+00  0.0000000000000000e+00  0.0000000000000000e+00  0.0000000000000000e+00  0.0000000000000000e+00  0.0000000000000000e+00  0.0000000000000000e+00  0.0000000000000000e+00  0.0000000000000000e+00  0.0000000000000000e+00  0.0000000000000000e+00  0.0000000000000000e+00  0.0000000000000000e+00  0.0000000000000000e+00  0.0000000000000000e+00  0.0000000000000000e+00  0.0000000000000000e+00  0.0000000000000000e+00  0.0000000000000000e+00  0.0000000000000000e+00  0.0000000000000000e+00  0.0000000000000000e+00  0.0000000000000000e+00  -9.5681493591851119e-01  -9.1549257797070738e-01  -8.7595277614906664e-01  -8.3811878659129135e-01  -8.0191716534843516e-01  -7.6727762738453908e-01  -7.3413290523229635e-01  -7.0241863274293692e-01  -6.7207319244635544e-01  -6.4303765395226375e-01  -6.1525560497272824e-01  -5.8867306289785970e-01  -5.6323837596469617e-01  -5.3890211800634846e-01  -5.1561699503589220e-01  -4.9333774537477348e-01  -4.7202106638748120e-01  -4.5162551664610412e-01  -4.3211144732406720e-01  -4.1344090957565094e-01  -3.9557759194143638e-01  -3.7848675914208296e-01  -3.6213516115273880e-01  -3.4649098154655339e-01  -3.3152377626984797e-01  -3.1720442093761897e-01  -3.0350503500170256e-01  -2.9039894241571668e-01  -2.7786061708427728e-01  -2.6586562918159851e-01  -2.5439060463113500e-01  -2.4341316662814411e-01  -2.3291190970878464e-01  -2.2286634588708371e-01  -2.1325686305701866e-01  -2.0406469576653430e-01  -1.9527188705720575e-01  -1.8686123933167689e-01  -1.7881630808002391e-01  -1.7112133836120164e-01  -1.6376126135976546e-01  -1.5672164541012723e-01  -1.4998867823303186e-01  -1.4354913864583929e-01  -1.3739036628646434e-01  -1.3150024467461113e-01  -1.2586716858868341e-01  -1.2048002872504569e-01  -1.1532818794970172e-01  -1.1040145750508780e-01  -1.0569008161242407e-01  -1.0118471769489981e-01  -9.6876414687668971e-02  -9.2756601714706677e-02  -8.8817067722312557e-02  -8.5049942429095138e-02  -8.1447691215315268e-02  -7.8003089540197967e-02  -7.4709216821542912e-02  -7.1559438683527321e-02  -6.8547396708789107e-02  -6.5666995064279851e-02  -6.2912390012602973e-02  -6.0277976977321679e-02  -5.7758382627765080e-02  -5.5348449918882214e-02  -5.3043234141819343e-02  -5.0837987683613542e-02  -4.8728155861302712e-02  -4.6709368743493906e-02  -4.4777416831486172e-02  -4.2928277503977881e-02  -4.1158063647796429e-02  -3.9463052765982179e-02  -3.7839654927927437e-02  -3.6284420603760144e-02  -3.4794024753375827e-02  -3.3365263356464357e-02  -3.1995049712928804e-02  -3.0680398265800192e-02  -2.9418415344078314e-02  -2.8206321234874345e-02  -2.7041403532268107e-02  -2.5921030742594140e-02  -2.4842653714136374e-02  -2.3803770923673966e-02  -2.2801946155630581e-02  -2.1834785841377040e-02  -2.0899937071859564e-02  -1.9995080980232106e-02  -1.9117904829693323e-02  -1.8266122358270596e-02  -1.7437429553668213e-02  -1.6629520217717648e-02  -1.5840021740470018e-02  -1.5066538584464174e-02  -1.4306631510422243e-02  -1.3557730245383698e-02  -1.2817185308472740e-02  -1.2082183440494101e-02  -1.1349745061889583e-02  -1.0616634100057531e-02  -9.8794577286889750e-03  -9.1344291600640639e-03  -8.3773767459068161e-03  -7.6036699923455906e-03  -6.8081417116388357e-03  -5.9849361896565740e-03  -5.1274230041158785e-03  -4.2278505852004714e-03  -3.2773606529065366e-03  -2.2654629681838744e-03  -1.1798589034869471e-03  0.0000000000000000e+00  0.0000000000000000e+00  0.0000000000000000e+00  0.0000000000000000e+00  0.0000000000000000e+00  0.0000000000000000e+00  0.0000000000000000e+00  0.0000000000000000e+00  0.0000000000000000e+00  0.0000000000000000e+00  0.0000000000000000e+00  0.0000000000000000e+00  0.0000000000000000e+00  0.0000000000000000e+00  0.0000000000000000e+00  0.0000000000000000e+00  0.0000000000000000e+00  0.0000000000000000e+00  0.0000000000000000e+00  0.0000000000000000e+00  0.0000000000000000e+00  0.0000000000000000e+00  0.0000000000000000e+00  0.0000000000000000e+00  0.0000000000000000e+00  0.0000000000000000e+00  0.0000000000000000e+00  0.0000000000000000e+00  0.0000000000000000e+00  0.0000000000000000e+00  0.0000000000000000e+00  0.0000000000000000e+00  0.0000000000000000e+00  0.0000000000000000e+00  0.0000000000000000e+00  0.0000000000000000e+00  0.0000000000000000e+00  0.0000000000000000e+00  0.0000000000000000e+00  0.0000000000000000e+00  0.0000000000000000e+00  0.0000000000000000e+00  0.0000000000000000e+00  0.0000000000000000e+00  0.0000000000000000e+00  0.0000000000000000e+00  0.0000000000000000e+00  0.0000000000000000e+00  0.0000000000000000e+00  0.0000000000000000e+00  0.0000000000000000e+00  0.0000000000000000e+00  0.0000000000000000e+00  0.0000000000000000e+00  0.0000000000000000e+00  0.0000000000000000e+00  0.0000000000000000e+00  0.0000000000000000e+00  0.0000000000000000e+00  0.0000000000000000e+00  0.0000000000000000e+00  0.0000000000000000e+00  0.0000000000000000e+00  0.0000000000000000e+00  0.0000000000000000e+00  0.0000000000000000e+00  2.6407911977743809e-04  5.0105860080320534e-04  7.1984953391646925e-04  9.2579942091550529e-04  1.1227072088953688e-03  1.3133071390905187e-03  1.4995803812492782e-03  1.6829643214461780e-03  1.8645190685497104e-03  2.0449887610751419e-03  2.2249385652008511e-03  2.4047633706264981e-03  2.5847422661801566e-03  2.7650719253525030e-03  2.9458759079052099e-03  3.1272350880447446e-03  3.3091896815902687e-03  3.4917521745154441e-03  3.6749138347474852e-03  3.8586497776864001e-03  4.0429234450404233e-03  4.2276884033381557e-03  4.4128931258095019e-03  4.5984802381131666e-03  4.7843894046258233e-03  4.9705575917616280e-03  5.1569203710791853e-03  5.3434126433609432e-03  5.5299677917431348e-03  5.7165197263963907e-03  5.9030030832948341e-03  6.0893506865002858e-03  6.2754977173826764e-03  6.4613781094586204e-03  6.6469267053100136e-03  6.8320780431015997e-03  7.0167679280128143e-03  7.2009318931503035e-03  7.3845039153172436e-03  7.5674212817031577e-03  7.7496181708433419e-03  7.9310295682737571e-03  8.1115910714010132e-03  8.2912372500191771e-03  8.4698993197813138e-03  8.6475134692690896e-03  8.8240104120825592e-03  8.9993211801566338e-03  9.1733756000735404e-03  9.3461041979634469e-03  9.5174331207720352e-03  9.6872891597712622e-03  9.8555956410804543e-03  1.0022274816009692e-02  1.0187246898582351e-02  1.0350430487269430e-02  1.0511736942638315e-02  1.0671084577690964e-02  1.0828379598034116e-02  1.0983529361049479e-02  1.1136436800877742e-02  1.1287001443055217e-02  1.1435120978912923e-02  1.1580684571193404e-02  1.1723581354324017e-02  1.1863690686722083e-02  1.2000889945646784e-02  1.2135049750903210e-02  1.2266032503602057e-02  1.2393700612962653e-02  1.2517903689466533e-02  1.2638479073818256e-02  1.2755270450438946e-02  1.2868095058455386e-02  1.2976778685858791e-02  1.3081121930375526e-02  1.3180921184050075e-02  1.3275956893414830e-02  1.3366002748389188e-02  1.3450810652335082e-02  1.3530124440109207e-02  1.3603664889315557e-02  1.3671138677846327e-02  1.3732230498259756e-02  1.3786604168087181e-02  1.3833902039573423e-02  1.3873726268768937e-02  1.3905681996985471e-02  1.3929311521743391e-02  1.3944138788336185e-02  1.3949646561935626e-02  1.3945274984611736e-02  1.3930419822032448e-02  1.3904430554733574e-02  1.3866583649651067e-02  1.3816110512040422e-02  1.3752169420741898e-02  1.3673832540175313e-02  1.3580077046971371e-02  1.3469815405412786e-02  1.3341792514698071e-02  1.3194690986959303e-02  1.3026994074240447e-02  1.2837056951696275e-02  1.2623025442885939e-02  1.2382848265786167e-02  1.2114225698368106e-02  1.1814553337971666e-02  1.1480935636569798e-02  1.1110031098204083e-02  1.0698147786378592e-02  1.0240910699143891e-02  9.7334993626371630e-03  9.1701993885856311e-03  8.5444970064061272e-03  7.8486679190192723e-03  7.0738941629758193e-03  6.2095758692103176e-03  5.2432650811134289e-03  4.1598618899686066e-03  2.9417045736584500e-03  1.5666354647760120e-03  0.0000000000000000e+00  0.0000000000000000e+00  0.0000000000000000e+00  0.0000000000000000e+00  0.0000000000000000e+00  0.0000000000000000e+00  0.0000000000000000e+00  0.0000000000000000e+00  0.0000000000000000e+00  0.0000000000000000e+00  0.0000000000000000e+00  0.0000000000000000e+00  0.0000000000000000e+00  0.0000000000000000e+00  0.0000000000000000e+00  0.0000000000000000e+00  0.0000000000000000e+00  0.0000000000000000e+00  0.0000000000000000e+00  0.0000000000000000e+00  0.0000000000000000e+00  0.0000000000000000e+00  0.0000000000000000e+00  0.0000000000000000e+00  0.0000000000000000e+00  0.0000000000000000e+00  0.0000000000000000e+00  0.0000000000000000e+00  0.0000000000000000e+00  0.0000000000000000e+00  0.0000000000000000e+00  0.0000000000000000e+00  0.0000000000000000e+00  0.0000000000000000e+00  0.0000000000000000e+00  0.0000000000000000e+00  0.0000000000000000e+00  0.0000000000000000e+00  0.0000000000000000e+00  0.0000000000000000e+00  0.0000000000000000e+00  0.0000000000000000e+00  0.0000000000000000e+00  0.0000000000000000e+00  0.0000000000000000e+00  0.0000000000000000e+00  0.0000000000000000e+00  0.0000000000000000e+00  0.0000000000000000e+00  0.0000000000000000e+00  0.0000000000000000e+00  0.0000000000000000e+00  0.0000000000000000e+00  0.0000000000000000e+00  0.0000000000000000e+00  0.0000000000000000e+00  0.0000000000000000e+00  0.0000000000000000e+00  0.0000000000000000e+00  0.0000000000000000e+00  0.0000000000000000e+00  0.0000000000000000e+00  0.0000000000000000e+00  0.0000000000000000e+00  0.0000000000000000e+00  0.0000000000000000e+00  1.8049643281063551e-03  3.3858528320566210e-03  4.7790934991376027e-03  6.0073994683116170e-03  7.0891621273774137e-03  8.0395664427973749e-03  8.8710792233644576e-03  9.5938386552279209e-03  1.0216040747978820e-02  1.0744292263084727e-02  1.1183808954685728e-02  1.1538497100692498e-02  1.1811296440514632e-02  1.2004014157207166e-02  1.2117562603487453e-02  1.2151985074295581e-02  1.2106414762306407e-02  1.1979131292766192e-02  1.1767317968016323e-02  1.1467632642383437e-02  1.1075307197011308e-02  1.0584642076884036e-02  9.9886541481961407e-03  9.2789384911934406e-03  8.4453570198130302e-03  7.4760840916722046e-03  6.3571596274460745e-03  5.0720538604167838e-03  3.6014260140024936e-03  1.9227009953199875e-03  4.5371685664755655e-03  8.7082219495801510e-03  1.2575483288858236e-02  1.6176491789330325e-02  1.9540356313231255e-02  2.2695222928072436e-02  2.5664301996093802e-02  2.8467661844327377e-02  3.1124902996317434e-02  3.3651367729430053e-02  3.6061548703299376e-02  3.8369608981355767e-02  4.0585967172481488e-02  4.2722195306975984e-02  4.4787809448662237e-02  4.6791781848655414e-02  4.8742325273232100e-02  5.0647201246458218e-02  5.2513443536833154e-02  5.4347752371004650e-02  5.6156042210755090e-02  5.7944420912030919e-02  5.9718393802604373e-02  6.1483363287169225e-02  6.3244363578581889e-02  6.5006457907526655e-02  6.6774402266065541e-02  6.8552804928354596e-02  7.0346339952031947e-02  7.2159539549182930e-02  7.3996785778505866e-02  7.5862724161152875e-02  7.7761666145562486e-02  7.9698114567233566e-02  8.1676673173779510e-02  8.3701778068746124e-02  8.5778143161788944e-02  8.7910435567551806e-02  9.0103466028512422e-02  9.2362165615265487e-02  9.4691600063998474e-02  9.7096881492650097e-02  9.9583365212227007e-02  1.0215654741372716e-01  1.0482218041695932e-01  1.0758600382320122e-01  1.1045423527470188e-01  1.1343308960702246e-01  1.1652918158434428e-01  1.1974927510453057e-01  1.2310050548750881e-01  1.2659016717716268e-01  1.3022597599775151e-01  1.3401593466331366e-01  1.3796834969101457e-01  1.4209196138574487e-01  1.4639578182881277e-01  1.5088932641685338e-01  1.5558246069805731e-01  1.6048552845686961e-01  1.6560932704663742e-01  1.7096514670713381e-01  1.7656477937429740e-01  1.8242057892328931e-01  1.8854543077263955e-01  1.9495284654454434e-01  2.0165696127282101e-01  2.0867254552121467e-01  2.1601507441270887e-01  2.2370074768907325e-01  2.3174651567866961e-01  2.4017012174442651e-01  2.4899015947267875e-01  2.5822608555586057e-01  2.6789827390579535e-01  2.7802807822198600e-01  2.8863785149408600e-01  2.9975100634191892e-01  3.1139207115029260e-01  3.2358673852092051e-01  3.3636192944507110e-01  3.4974584091364935e-01  3.6376801656559554e-01  3.7845941675377948e-01  3.9385246354837405e-01  4.0998115034050897e-01  4.2688108138839614e-01  4.4458957158190571e-01  4.6314572105950896e-01  4.8259049541952087e-01  5.0296683422138144e-01  5.2431973366567930e-01  5.4669634466433115e-01  5.7014608451267379e-01  5.9472073524352753e-01  6.2047458139577039e-01  6.4746449767734304e-01  6.7575010268481583e-01  7.0539389002528763e-01  7.3646132903291239e-01  7.6902107514131801e-01  8.0314506859743151e-01  8.3890875188380409e-01  8.7639116297001796e-01  9.1567520935301527e-01  9.5684777644075003e-01  -6.7106680553588788e-02  1.2845921058719376e-01  -3.8492834069501249e-02  -1.1286392148797711e-01  1.7887977606633298e-01  9.3711819063282381e-02  -2.5398507126020656e-02  -1.7501153902870206e-01  1.3938955741894823e-02  2.4308175654618017e-01  3.2997605113731165e-01  -2.4861793458124878e-01  -1.7838319590898294e-02  1.3266916818253129e-02  7.5134575041671509e-02  1.3761571996183303e-02  -3.3900666354012637e-01  -1.3191886115444064e-02  4.1834602175433816e-01  -4.9642634771909784e-02  -4.4210079184854945e-01  -8.6982623229022116e-02  1.0926478883639970e-01  1.1670531061920260e-02  6.2389409723178156e-02  6.7305825432444873e-03  5.4377094341357237e-03  4.3272807427544788e-03  7.8393917030742041e-03  1.3322986531328233e-02  1.2071794543460879e-03  -2.1691989194701226e-02  5.1319910300113158e-01  -3.1357975968363053e-02  1.4797107242510957e-01  -7.1182754761456041e-04  -5.5401384699233747e-01  -1.4051634910369082e-01  1.9571746422703767e-01  -2.3839705649310039e-01  4.1278034303258576e-01  -4.5682911539031362e-01  3.3914568516946798e-03  -9.5233744214139292e-03  5.3415657982651008e-02  8.7339151415061628e-03  9.4754970153200311e-03  9.6202890033387611e-01  -9.6361717499628574e-01  6.3372347888009017e-01  1.8790488786185294e-04  -2.1370421998241254e-02  -6.5749888149306257e-01  2.8326023385959515e-01  2.0607028446057957e-01  -2.0875371376513313e-01  8.2597869233007659e-02  1.3722525275753837e-02  1.7378582867243132e-03  2.7238046675232288e-03  5.8625347990791188e-01  1.3919816618444148e-02  2.4946698033863220e-03  4.5862903055521910e-02  1.1631662978536287e-03  -6.3086027625198293e-01  -8.9268258071192386e-04  1.2934375923254212e-02  9.4227168484831477e-03  8.4907202026129024e-03  1.7667712490056387e-03  8.8817743184079929e-03  1.6338650802624470e-03  9.6301360503305944e-01  -9.6241836220682742e-01  1.6540038358621404e-03  1.3829708386750802e-03  9.6231168523260924e-01  -6.3989102833059090e-03  -9.5942694441093446e-01  2.4686859790258420e-02  6.6615625986352804e-03  7.5291739491592313e-01  -1.5292469810986994e-02  -7.5089304875781782e-01  3.7107518042015170e-01  -4.3813067508588661e-02  1.6294825041609678e-01  -3.8729615126181544e-01  -5.6128786046682359e-02  -2.8412898656966962e-01  -9.8966908315093541e-02  -7.6218397842941335e-02  1.1792200586786897e-01  1.0087949654900001e-01  3.2515268693429446e-02  6.7686505268701222e-02  3.9600138502546602e-02  1.2509859058615243e-02  7.6189496409067459e-01  -9.6367535291416995e-01  1.0807428561084159e-02  1.0520291148425275e-02  1.2212080471860930e-03  4.8773994813436795e-03  5.9714995362857553e-03  7.2765450433704753e-03  1.3564684801310215e-02  1.2560396903690575e-02  9.9345655365226260e-03  1.2192533717565219e-02  -7.6094764611219579e-01  9.5774346058373738e-01  1.4283653578005908e-03  1.4849582053080344e-03  -8.9686440825681966e-04  3.5315862319865686e-03  1.2436481270888490e-03  1.8097376041072800e-04  9.6603600511614673e-01  -9.6258031176304659e-01  5.4933271530417877e-03  5.7041326601937510e-03  -3.7823127060682767e-03  1.4425160517923192e-02  1.6280986676529391e-03  1.3087307601733708e-04  3.5391905741301933e-03  8.5707830756948000e-01  -8.5591955750447235e-01  1.9256534514487075e-03  -8.0066962817652004e-03  6.9078036080893290e-01  -1.0950876456517164e-02  5.5766361844797541e-01  -1.9599135767398742e-02  -2.3278032398315354e-02  -6.0044242947008797e-01  -2.7625539054185716e-02  -3.4127274414015515e-02  4.5372160908867409e-01  3.0534581878661399e-01  2.6338755962462773e-01  2.1954423168516463e-01  -4.8267886659725456