<?xml version="1.0"?>
<VTKFile type="UnstructuredGrid"  version="0.1"  >
<UnstructuredGrid>
<Piece  NumberOfPoints="6391" NumberOfCells="12198">
<Points>
<DataArray  type="Float64"  NumberOfComponents="3"  format="ascii">0 0 0  450 0 0  450 225 0  0 225 0  224 0 0  226 0 0  225 1 0  226 1 0  227 0.5 0  228 0 0  230 0 0  229 1 0  230 1 0  231 0.5 0  232 0 0  234 0 0  233 1 0  234 1 0  450 9.782608695661354 0  450 19.56521739132493 0  450 29.34782608698428 0  450 39.13043478263055 0  450 48.91304347827662 0  450 58.69565217392267 0  450 68.47826086956874 0  450 78.26086956521479 0  450 88.04347826086087 0  450 97.82608695650693 0  450 107.608695652153 0  450 117.3913043478299 0  450 127.1739130435357 0  450 136.9565217391855 0  450 146.7391304348315 0  450 156.5217391304776 0  450 166.3043478261236 0  450 176.0869565217697 0  450 185.8695652174157 0  450 195.6521739130618 0  450 205.4347826087078 0  450 215.2173913043539 0  440.217391304352 225 0  430.4347826087039 225 0  420.6521739130558 225 0  410.8695652174077 225 0  401.0869565217596 225 0  391.3043478261116 225 0  381.5217391304635 225 0  371.7391304348154 225 0  361.9565217391673 225 0  352.1739130435193 225 0  342.3913043478713 225 0  332.6086956522231 225 0  322.8260869565751 225 0  313.043478260927 225 0  303.2608695652789 225 0  293.4782608696308 225 0  283.6956521739828 225 0  273.9130434783347 225 0  264.1304347826866 225 0  254.3478260870386 225 0  244.5652173913905 225 0  234.7826086957424 225 0  225.0000000000888 225 0  215.2173913043845 225 0  205.4347826086747 225 0  195.6521739129687 225 0  185.8695652173134 225 0  176.0869565216654 225 0  166.3043478260173 225 0  156.5217391303692 225 0  146.7391304347212 225 0  136.956521739073 225 0  127.173913043425 225 0  117.3913043477769 225 0  107.6086956521288 225 0  97.82608695648076 225 0  88.04347826083261 225 0  78.26086956518463 225 0  68.47826086953654 225 0  58.69565217388845 225 0  48.91304347824035 225 0  39.13043478259226 225 0  29.34782608694422 225 0  19.56521739129619 225 0  9.782608695648094 225 0  0 215.2173913043519 0  0 205.4347826087039 0  0 195.6521739130558 0  0 185.8695652174077 0  0 176.0869565217596 0  0 166.3043478261116 0  0 156.5217391304635 0  0 146.7391304348154 0  0 136.9565217391674 0  0 127.1739130435193 0  0 117.3913043478712 0  0 107.6086956521923 0  0 97.82608695648437 0  0 88.0434782608327 0  0 78.26086956518458 0  0 68.47826086953651 0  0 58.69565217388845 0  0 48.91304347824038 0  0 39.13043478259232 0  0 29.34782608694422 0  0 19.56521739129613 0  0 9.782608695648094 0  224.0020089923861 0.063355731562034 0  224.0078669237896 0.1251876954392177 0  224.0173189540956 0.1853050512541301 0  224.0301104026608 0.243545003999721 0  224.0459888465302 0.2997711111084815 0  224.0647058707711 0.3538712927462628 0  224.0860185776573 0.4057560345977113 0  224.1096908286717 0.4553565410189064 0  224.1354942695903 0.5026229621582694 0  224.1632091334853 0.5475226440227238 0  224.1926249250355 0.5900385481695689 0  224.2235407638306 0.6301674813628185 0  224.2557657849086 0.6679187323973781 0  224.2891195163637 0.7033128308121627 0  224.3234314721495 0.736379675929636 0  224.3585416405058 0.7671578540528868 0  224.3943001347868 0.7956932029876407 0  224.4305670884679 0.8220378089017952 0  224.4672124255662 0.8462490180372396 0  224.5041156045838 0.8683885457459335 0  224.5411652540955 0.8885216237947197 0  224.5782590182344 0.9067163527252478 0  224.6153028595457 0.9230428538948069 0  224.6522110523273 0.9375728493705031 0  224.6889055603574 0.9503790031474065 0  224.72531568381 0.961534464509318 0  224.7613777251139 0.9711124599798758 0  224.7970345748618 0.9791859048201496 0  224.8322353596756 0.9858270768531486 0  224.8669348413503 0.9911072916458271 0  224.9010933583037 0.9950967170221953 0  224.9346762707545 0.997864124216049 0  224.9676536620218 0.9994767202988784 0  225.0323463381051 0.99947672029477 0  225.0653237301236 0.9978641241585631 0  225.0989066431223 0.9950967168804671 0  225.1330651602428 0.9911072914319439 0  225.1677646419726 0.9858270765726634 0  225.2029654269951 0.979185904435247 0  225.2386222604036 0.9711124635385281 0  225.2746843192525 0.9615344636344383 0  225.3110944429274 0.9503790020721721 0  225.3477889498758 0.9375728485532481 0  225.3846971416895 0.9230428533800188 0  225.4217409837351 0.9067163518091972 0  225.4588347483695 0.888521622521743 0  225.4958843983252 0.8683885440847672 0  225.5327875773925 0.846249016174439 0  225.5694329140487 0.8220378071585059 0  225.6056998679296 0.7956932009198679 0  225.641458362852 0.7671578512452597 0  225.6765685310523 0.736379672987914 0  225.7108804867128 0.7033128277025616 0  225.7442342180933 0.6679187290524371 0  225.7764592391041 0.6301674777468723 0  225.8073750777669 0.5900385443348745 0  225.8367908685816 0.5475226408638091 0  225.8645057322388 0.502622959012232 0  225.8903091726418 0.4553565384507763 0  225.9139814234573 0.4057560320869432 0  225.935294130113 0.3538712904094632 0  225.9540111540606 0.2997711092283469 0  225.9698895977127 0.2435450025123902 0  225.9826810461417 0.1853050499957777 0  225.9921330763121 0.1251876946332835 0  225.9979910076399 0.06335573115285377 0  9.724657309557664 0 0  19.02990561489478 0 0  27.93382974437208 0 0  36.4537404975454 0 0  44.60620016225933 0 0  52.40705568240647 0 0  59.87147154317288 0 0  67.01395653385165 0 0  73.84839875777189 0 0  80.38807968606275 0 0  86.64571284056197 0 0  92.63346328245085 0 0  98.36297046378698 0 0  103.8453721348713 0 0  109.0913252627834 0 0  114.1110282135623 0 0  118.914238357087 0 0  123.5102929000238 0 0  127.9081253730336 0 0  132.1162857391113 0 0  136.1429549088198 0 0  139.9959585537756 0 0  143.6827874356201 0 0  147.2106089691988 0 0  150.5862812955824 0 0  153.8163648770172 0 0  156.9071395455719 0 0  159.8646136931983 0 0  162.6945358741549 0 0  165.4024075759797 0 0  167.9934921069113 0 0  170.4728273952023 0 0  172.8452319994138 0 0  175.1153183143408 0 0  177.2874990632585 0 0  179.3659966326073 0 0  181.3548516892633 0 0  183.2579303976732 0 0  185.0789313485823 0 0  186.8213956698771 0 0  188.4887097667209 0 0  190.0841148690362 0 0  191.6107125473505 0 0  193.0714699966116 0 0  194.4692272649741 0 0  195.8067009978392 0 0  197.0864915810537 0 0  198.3110864738335 0 0  199.482866160831 0 0  200.6041087807559 0 0  201.6769937811462 0 0  202.7036067754679 0 0  203.6859433789877 0 0  204.6259132873555 0 0  205.5253433791829 0 0  206.3859826682087 0 0  207.2095035890445 0 0  207.997507257115 0 0  208.7515253637376 0 0  209.4730237734672 0 0  210.1634049499469 0 0  210.8240109907306 0 0  211.4561260143591 0 0  212.060978785667 0 0  212.6397450141027 0 0  213.1935499460044 0 0  213.7234700471982 0 0  214.2305354641678 0 0  214.7157318316905 0 0  215.1800023503719 0 0  215.6242495509076 0 0  216.0493371210115 0 0  216.4560911509623 0 0  216.845302440869 0 0  217.21772760454 0 0  217.5740906239334 0 0  217.9150841433838 0 0  218.241371125184 0 0  218.5535858412163 0 0  218.8523351331747 0 0  219.1381997902312 0 0  219.4117355022302 0 0  219.6734739944899 0 0  219.9239241281105 0 0  220.1635726506841 0 0  220.3928854518087 0 0  220.61230834362 0 0  220.8222678864888 0 0  221.0231721146276 0 0  221.2154116317471 0 0  221.3993601212488 0 0  221.5753751763791 0 0  221.7437989502984 0 0  221.9049588503808 0 0  222.0591681367364 0 0  222.2067265977104 0 0  222.3479210690713 0 0  222.4830260263524 0 0  222.6123041189778 0 0  222.7360065812347 0 0  222.8543739478548 0 0  222.9676363098526 0 0  223.0760138277523 0 0  223.1797171723988 0 0  223.2789479251624 0 0  223.3738989996738 0 0  223.4647549720281 0 0  223.5516924491118 0 0  223.6348804347739 0 0  223.7144806430749 0 0  223.7906478148444 0 0  223.8635299801972 0 0  223.9332688577469 0 0  228.0020089923861 0.063355731562034 0  228.0078669237896 0.1251876954392177 0  228.0173189540956 0.1853050512541301 0  228.0301104026608 0.243545003999721 0  228.0459888465302 0.2997711111084815 0  228.0647058707711 0.3538712927462628 0  228.0860185776573 0.4057560345977113 0  228.1096908286717 0.4553565410189064 0  228.1354942695903 0.5026229621582694 0  228.1632091334853 0.5475226440227238 0  228.1926249250355 0.5900385481695689 0  228.2235407638306 0.6301674813628185 0  228.2557657849086 0.6679187323973781 0  228.2891195163637 0.7033128308121627 0  228.3234314721495 0.736379675929636 0  228.3585416405058 0.7671578540528868 0  228.3943001347868 0.7956932029876407 0  228.4305670884679 0.8220378089017952 0  228.4672124255662 0.8462490180372396 0  228.5041156045838 0.8683885457459335 0  228.5411652540955 0.8885216237947197 0  228.5782590182344 0.9067163527252478 0  228.6153028595457 0.9230428538948069 0  228.6522110523273 0.9375728493705031 0  228.6889055603574 0.9503790031474065 0  228.72531568381 0.961534464509318 0  228.7613777251139 0.9711124599798758 0  228.7970345748618 0.9791859048201496 0  228.8322353596756 0.9858270768531486 0  228.8669348413503 0.9911072916458271 0  228.9010933583037 0.9950967170221953 0  228.9346762707545 0.997864124216049 0  228.9676536620218 0.9994767202988784 0  229.0323463381051 0.99947672029477 0  229.0653237301236 0.9978641241585631 0  229.0989066431223 0.9950967168804671 0  229.1330651602428 0.9911072914319439 0  229.1677646419726 0.9858270765726634 0  229.2029654269951 0.979185904435247 0  229.2386222604036 0.9711124635385281 0  229.2746843192525 0.9615344636344383 0  229.3110944429274 0.9503790020721721 0  229.3477889498758 0.9375728485532481 0  229.3846971416895 0.9230428533800188 0  229.4217409837351 0.9067163518091972 0  229.4588347483695 0.888521622521743 0  229.4958843983252 0.8683885440847672 0  229.5327875773925 0.846249016174439 0  229.5694329140487 0.8220378071585059 0  229.6056998679296 0.7956932009198679 0  229.641458362852 0.7671578512452597 0  229.6765685310523 0.736379672987914 0  229.7108804867128 0.7033128277025616 0  229.7442342180933 0.6679187290524371 0  229.7764592391041 0.6301674777468723 0  229.8073750777669 0.5900385443348745 0 
[...]
<PointData  Scalars="foodini"> 
<DataArray  type="Float64"  Name="foodini"  format="ascii">-9.9999999999999992e-02  9.9999999999999992e-02  1.0000000000000001e-01  -1.0000000000000001e-01  0.0000000000000000e+00  0.0000000000000000e+00  0.0000000000000000e+00  1.1931496632536258e-05  1.1248057733081455e-04  0.0000000000000000e+00  0.0000000000000000e+00  0.0000000000000000e+00  4.6653679460356289e-04  6.7899855865615204e-04  0.0000000000000000e+00  0.0000000000000000e+00  0.0000000000000000e+00  1.3024439481273110e-03  1.0000000000000002e-01  9.9999999999999992e-02  1.0000000000000001e-01  1.0000000000000001e-01  1.0000000000000002e-01  1.0000000000000002e-01  9.9999999999999992e-02  1.0000000000000001e-01  1.0000000000000002e-01  9.9999999999999992e-02  9.9999999999999992e-02  1.0000000000000001e-01  1.0000000000000001e-01  1.0000000000000001e-01  1.0000000000000001e-01  9.9999999999999992e-02  1.0000000000000001e-01  1.0000000000000001e-01  9.9999999999999992e-02  1.0000000000000002e-01  1.0000000000000002e-01  1.0000000000000001e-01  9.5650823561812898e-02  9.1301651251686558e-02  8.6952487283240690e-02  8.2603335925238858e-02  7.8254201712020313e-02  7.3905089359913120e-02  6.9556003883332509e-02  6.5206950608698522e-02  6.0857935165428617e-02  5.6508963617046250e-02  5.2160042203289729e-02  4.7811177601826918e-02  4.3462376583823181e-02  3.9113646121196700e-02  3.4764993146740836e-02  3.0416424478020905e-02  2.6067946552184335e-02  2.1719565348664996e-02  1.7371286113619506e-02  1.3023113201498383e-02  8.6750499307387003e-03  4.3270984142016050e-03  -2.0740497370497518e-05  -4.3684672538653220e-03  -8.7160835965193802e-03  -1.3063592489335467e-02  -1.7410997931212778e-02  -2.1758304930869957e-02  -2.6105519189758820e-02  -3.0452646960879622e-02  -3.4799694881142700e-02  -3.9146669762332172e-02  -4.3493578425642020e-02  -4.7840427607951902e-02  -5.2187223747796642e-02  -5.6533973092434145e-02  -6.0880681471290297e-02  -6.5227354351211075e-02  -6.9573996819870476e-02  -7.3920613592958054e-02  -7.8267209040612656e-02  -8.2613787220409560e-02  -8.6960351909998360e-02  -9.1306906696517198e-02  -9.5653454963135889e-02  -9.9999999999999992e-02  -1.0000000000000001e-01  -1.0000000000000001e-01  -9.9999999999999992e-02  -1.0000000000000002e-01  -1.0000000000000001e-01  -1.0000000000000001e-01  -9.9999999999999978e-02  -9.9999999999999978e-02  -9.9999999999999992e-02  -1.0000000000000002e-01  -1.0000000000000001e-01  -9.9999999999999992e-02  -1.0000000000000001e-01  -1.0000000000000001e-01  -1.0000000000000001e-01  -9.9999999999999992e-02  -1.0000000000000002e-01  -1.0000000000000001e-01  -9.9999999999999992e-02  -1.0000000000000001e-01  -9.9999999999999992e-02  0.0000000000000000e+00  0.0000000000000000e+00  0.0000000000000000e+00  0.0000000000000000e+00  0.0000000000000000e+00  0.0000000000000000e+00  0.0000000000000000e+00  0.0000000000000000e+00  0.0000000000000000e+00  0.0000000000000000e+00  0.0000000000000000e+00  0.0000000000000000e+00  0.0000000000000000e+00  0.0000000000000000e+00  0.0000000000000000e+00  0.0000000000000000e+00  0.0000000000000000e+00  0.0000000000000000e+00  0.0000000000000000e+00  0.0000000000000000e+00  0.0000000000000000e+00  0.0000000000000000e+00  0.0000000000000000e+00  0.0000000000000000e+00  0.0000000000000000e+00  0.0000000000000000e+00  0.0000000000000000e+00  0.0000000000000000e+00  0.0000000000000000e+00  0.0000000000000000e+00  0.0000000000000000e+00  0.0000000000000000e+00  0.0000000000000000e+00  0.0000000000000000e+00  0.0000000000000000e+00  0.0000000000000000e+00  0.0000000000000000e+00  0.0000000000000000e+00  0.0000000000000000e+00  0.0000000000000000e+00  0.0000000000000000e+00  0.0000000000000000e+00  0.0000000000000000e+00  0.0000000000000000e+00  0.0000000000000000e+00  0.0000000000000000e+00  0.0000000000000000e+00  0.0000000000000000e+00  0.0000000000000000e+00  0.0000000000000000e+00  0.0000000000000000e+00  0.0000000000000000e+00  0.0000000000000000e+00  0.0000000000000000e+00  0.0000000000000000e+00  0.0000000000000000e+00  0.0000000000000000e+00  0.0000000000000000e+00  0.0000000000000000e+00  0.0000000000000000e+00  0.0000000000000000e+00  0.0000000000000000e+00  0.0000000000000000e+00  0.0000000000000000e+00  0.0000000000000000e+00  0.0000000000000000e+00  -9.5679694996346668e-02  -9.1545728619346053e-02  -8.7590074971507628e-02  -8.3805050503012235e-02  -8.0183302741980794e-02  -7.6717796256671411e-02  -7.3401798073890120e-02  -7.0228866033199944e-02  -6.7192833298172494e-02  -6.4287802221411547e-02  -6.1508127238485269e-02  -5.8848406275437401e-02  -5.6303470581612669e-02  -5.3868374180735527e-02  -5.1538384506363458e-02  -4.9308972747382704e-02  -4.7175805892553851e-02  -4.5134737508357677e-02  -4.3181800463010928e-02  -4.1313197956565843e-02  -3.9525297076175150e-02  -3.7814622668847657e-02  -3.6177848539116556e-02  -3.4611791722824956e-02  -3.3113406883931273e-02  -3.1679780894331086e-02  -3.0308124937276276e-02  -2.8995771154187434e-02  -2.7740166863622663e-02  -2.6538869097415558e-02  -2.5389540601728891e-02  -2.4289944211790700e-02  -2.3237940195754224e-02  -2.2231480313617720e-02  -2.1268604722463811e-02  -2.0347438479700549e-02  -1.9466186648423027e-02  -1.8623132172271427e-02  -1.7816632186556658e-02  -1.7045113567102425e-02  -1.6307071643816021e-02  -1.5601066261751522e-02  -1.4925719057129895e-02  -1.4279710918948424e-02  -1.3661779465086753e-02  -1.3070716280771336e-02  -1.2505364691362276e-02  -1.1964617970994990e-02  -1.1447416170239116e-02  -1.0952745069223483e-02  -1.0479633333949898e-02  -1.0027151250068315e-02  -9.5944087480720197e-03  -9.1805533231135057e-03  -8.7847687177514157e-03  -8.4062731453587603e-03  -8.0443179138315821e-03  -7.6981857761707012e-03  -7.3671896040284719e-03  -7.0506710368959200e-03  -6.7479991829822268e-03  -6.4585692856510470e-03  -6.1818018960975319e-03  -5.9171411067795825e-03  -5.6640540903732184e-03  -5.4220295741914610e-03  -5.1905771424903113e-03  -4.9692261768996175e-03  -4.7575248211442255e-03  -4.5550391809399864e-03  -4.3613525526974657e-03  -4.1760642761499642e-03  -3.9987893272778402e-03  -3.8291573328057956e-03  -3.6668117497672776e-03  -3.5114091692006731e-03  -3.3626187466924791e-03  -3.2201214197537342e-03  -3.0836090974807355e-03  -2.9527842020853987e-03  -2.8273584474229323e-03  -2.7070536423973455e-03  -2.5915983311136800e-03  -2.4807305427366781e-03  -2.3741936240016599e-03  -2.2717390440608345e-03  -2.1731205797315850e-03  -2.0781022281611489e-03  -1.9864456163468549e-03  -1.8979201004661315e-03  -1.8122951234947086e-03  -1.7293418317669981e-03  -1.6488314741301133e-03  -1.5705338107476401e-03  -1.4942160617543354e-03  -1.4196413812287980e-03  -1.3465671642604407e-03  -1.2747436028014765e-03  -1.2039097793496115e-03  -1.1337909932978656e-03  -1.0640997130356316e-03  -9.9452642927469340e-04  -9.2473814366735669e-04  -8.5437384544310795e-04  -7.8303184631809070e-04  -7.1027741374494297e-04  -6.3561569634043027e-04  -5.5848566919090403e-04  -4.7826465629895713e-04  -3.9422465647908836e-04  -3.0550680053272175e-04  -2.1113926446396158e-04  -1.0995243506588841e-04  0.0000000000000000e+00  0.0000000000000000e+00  0.0000000000000000e+00  0.0000000000000000e+00  0.0000000000000000e+00  0.0000000000000000e+00  0.0000000000000000e+00  0.0000000000000000e+00  0.0000000000000000e+00  0.0000000000000000e+00  0.0000000000000000e+00  0.0000000000000000e+00  0.0000000000000000e+00  0.0000000000000000e+00  0.0000000000000000e+00  0.0000000000000000e+00  0.0000000000000000e+00  0.0000000000000000e+00  0.0000000000000000e+00  0.0000000000000000e+00  0.0000000000000000e+00  0.0000000000000000e+00  0.0000000000000000e+00  0.0000000000000000e+00  0.0000000000000000e+00  0.0000000000000000e+00  0.0000000000000000e+00  0.0000000000000000e+00  0.0000000000000000e+00  0.0000000000000000e+00  0.0000000000000000e+00  0.0000000000000000e+00  0.0000000000000000e+00  0.0000000000000000e+00  0.0000000000000000e+00  0.0000000000000000e+00  0.0000000000000000e+00  0.0000000000000000e+00  0.0000000000000000e+00  0.0000000000000000e+00  0.0000000000000000e+00  0.0000000000000000e+00  0.0000000000000000e+00  0.0000000000000000e+00  0.0000000000000000e+00  0.0000000000000000e+00  0.0000000000000000e+00  0.0000000000000000e+00  0.0000000000000000e+00  0.0000000000000000e+00  0.0000000000000000e+00  0.0000000000000000e+00  0.0000000000000000e+00  0.0000000000000000e+00  0.0000000000000000e+00  0.0000000000000000e+00  0.0000000000000000e+00  0.0000000000000000e+00  0.0000000000000000e+00  0.0000000000000000e+00  0.0000000000000000e+00  0.0000000000000000e+00  0.0000000000000000e+00  0.0000000000000000e+00  0.0000000000000000e+00  0.0000000000000000e+00  1.0666611521260736e-05  2.0218454618517055e-05  2.8987315226927916e-05  3.7163580715154440e-05  4.4869765645509070e-05  5.2182189217828285e-05  5.9143265896336165e-05  6.5770245141802327e-05  7.2061497095311230e-05  7.8000461046239189e-05  8.3559348461492616e-05  8.8701622794740546e-05  9.3379592791969539e-05  9.7543012463021918e-05  1.0113134336645196e-04  1.0407601615484092e-04  1.0630860112437340e-04  1.0774453795478916e-04  1.0829584891528497e-04  1.0786624228015505e-04  1.0634985339833448e-04  1.0362907296185334e-04  9.9578691069567932e-05  9.4059347093047827e-05  8.6918580264305298e-05  7.7990943984133202e-05  6.7100495864813719e-05  5.4057979111779047e-05  3.8670683718537631e-05  2.0745331076347133e-05  0.0000000000000000e+00  0.0000000000000000e+00  0.0000000000000000e+00  0.0000000000000000e+00  0.0000000000000000e+00  0.0000000000000000e+00  0.0000000000000000e+00  0.0000000000000000e+00  0.0000000000000000e+00  0.0000000000000000e+00  0.0000000000000000e+00  0.0000000000000000e+00  0.0000000000000000e+00  0.0000000000000000e+00  0.0000000000000000e+00  0.0000000000000000e+00  0.0000000000000000e+00  0.0000000000000000e+00  0.0000000000000000e+00  0.0000000000000000e+00  0.0000000000000000e+00  0.0000000000000000e+00  0.0000000000000000e+00  0.0000000000000000e+00  0.0000000000000000e+00  0.0000000000000000e+00  0.0000000000000000e+00  0.0000000000000000e+00  0.0000000000000000e+00  0.0000000000000000e+00  0.0000000000000000e+00  0.0000000000000000e+00  0.0000000000000000e+00  0.0000000000000000e+00  0.0000000000000000e+00  0.0000000000000000e+00  0.0000000000000000e+00  0.0000000000000000e+00  0.0000000000000000e+00  0.0000000000000000e+00  0.0000000000000000e+00  0.0000000000000000e+00  0.0000000000000000e+00  0.0000000000000000e+00  0.0000000000000000e+00  0.0000000000000000e+00  0.0000000000000000e+00  0.0000000000000000e+00  0.0000000000000000e+00  0.0000000000000000e+00  0.0000000000000000e+00  0.0000000000000000e+00  0.0000000000000000e+00  0.0000000000000000e+00  0.0000000000000000e+00  0.0000000000000000e+00  0.0000000000000000e+00  0.0000000000000000e+00  0.0000000000000000e+00  0.0000000000000000e+00  0.0000000000000000e+00  0.0000000000000000e+00  0.0000000000000000e+00  0.0000000000000000e+00  0.0000000000000000e+00  0.0000000000000000e+00  8.9457049253449796e-05  1.6793278015890444e-04  2.3730151365225261e-04  2.9872221934842020e-04  3.5311559818242507e-04  4.0122738274723293e-04  4.4365381586077555e-04  4.8087755787643623e-04  5.1327537247247354e-04  5.4114462700041081e-04  5.6470986633794316e-04  5.8412820077154690e-04  5.9950244310985645e-04  6.1088623865541676e-04  6.1828599823558436e-04  6.2166126824334813e-04  6.2093011410579285e-04  6.1596065303648516e-04  6.0658141804233190e-04  5.9256455838495835e-04  5.7363474089810801e-04  5.4945378831530874e-04  5.1962135894312723e-04  4.8366522035181371e-04  4.4103099217895892e-04  3.9107011072040537e-04  3.3302728625542465e-04  2.6603428034006199e-04  1.8907752674477310e-04  1.0100733703318165e-04  3.0243139648055415e-04  5.8029651580298366e-04  8.3801284735910255e-04  1.0782276626663415e-03  1.3030973037276392e-03  1.5145085270151062e-03  1.7141566723642974e-03  1.9034901187080832e-03  2.0837886784647089e-03  2.2561828336091216e-03  2.4217017904313684e-03  2.5812520671047974e-03  2.7356696386113266e-03  2.8856926233163699e-03  3.0320183404350756e-03  3.1752526937760222e-03  3.3159939813321025e-03  3.4547752296240197e-03  3.5921082478228574e-03  3.7284709418549792e-03  3.8643061938584029e-03  4.0000491731453647e-03  4.1361178174983814e-03  4.2728983267540255e-03  4.4107777879232512e-03  4.5501382624856994e-03  4.6913434083565237e-03  4.8347564314502062e-03  4.9807391829866507e-03  5.1296501479669923e-03  5.2818460737939143e-03  5.4376869130362653e-03  5.5975349322374031e-03  5.7617565834179917e-03  5.9307251739884673e-03  6.1048165646825636e-03  6.2844167384016889e-03  6.4699265174007828e-03  6.6617435298436988e-03  6.8602896951528661e-03  7.0659909234308087e-03  7.2792905569494023e-03  7.5006455145722366e-03  7.7305269727718775e-03  7.9694254299718607e-03  8.2178453729495008e-03  8.4763154220496555e-03  8.7453786280220543e-03  9.0256050558489582e-03  9.3175842809120526e-03  9.6219313163867747e-03  9.9392841499802015e-03  1.0270311028382698e-02  1.0615705370763900e-02  1.0976192489658967e-02  1.1352527591395715e-02  1.1745499470093091e-02  1.2155930704434173e-02  1.2584680652793844e-02  1.3032646603528609e-02  1.3500765875242600e-02  1.3990017499223314e-02  1.4501425011014930e-02  1.5036057464231147e-02  1.5595032572931855e-02  1.6179518981554831e-02  1.6790738032786037e-02  1.7429967481259970e-02  1.8098542692319732e-02  1.8797861385244200e-02  1.9529384058285342e-02  2.0294639274072421e-02  2.1095226062026275e-02  2.1932816197989438e-02  2.2809159696859663e-02  2.3726087648593183e-02  2.4685514565292548e-02  2.5689445052034333e-02  2.6739976047849213e-02  2.7839301504506381e-02  2.8989717686045809e-02  3.0193627376646878e-02  3.1453545116022254e-02  3.2772102499678789e-02  3.4152053278072976e-02  3.5596279654362212e-02  3.7107798077301017e-02  3.8689765646364400e-02  4.0345486003602327e-02  4.2078417863524009e-02  4.3892179947705695e-02  4.5790560918874838e-02  4.7777526312661273e-02  4.9857225403091426e-02  5.2034002220233626e-02  5.4312403835046902e-02  5.6697188603236304e-02  5.9193338362391414e-02  6.1806066868263509e-02  6.4540831686128494e-02  6.7403345551626845e-02  7.0399589061717685e-02  7.3535820031438964e-02  7.6818591181906912e-02  8.0254760797457483e-02  8.3851510251753136e-02  8.7616353631782079e-02  9.1557160242613844e-02  9.5682167950266156e-02  -6.6058808991488983e-03  1.0061785989409355e-02  -3.7491649815638937e-03  1.5314879857271247e-02  -1.1215567717743156e-02  6.9535575747776811e-03  -2.4355192432380605e-03  -1.7388517500199270e-02  2.1579610014051454e-02  2.9504966979983897e-02  -2.4825580587380790e-02  -1.6894445489189210e-03  5.3667597584497835e-03  3.9544912874312887e-02  -3.4051083250713966e-02  -1.2409543074577637e-03  5.0868648774484278e-02  -4.8820302460781152e-03  -4.4182634665766482e-02  1.2367010971468631e-02  -8.5621985386703289e-03  8.3475337217483129e-03  4.3433619422954635e-03  -2.2459338686297969e-03  -3.0284826368510639e-03  -6.7923591319310134e-05  -5.5333141176693058e-02  -1.3987637556149120e-02  1.9353070349919597e-02  -2.4009036648514982e-02  4.1261603456250795e-02  -4.5285106791193915e-02  -8.9073197562287510e-04  3.6623839908660315e-03  9.6505195492520457e-02  -9.5849033581596549e-02  6.3173479848060335e-02  -2.0325156982331965e-03  -6.5660085752407629e-02  2.5162226267516716e-02  1.7775574110380554e-02  -2.0880180238529975e-02  6.0229380981817373e-03  2.5283237603510017e-04  5.8165394777023580e-02  3.1064683207533499e-03  -6.3033652748783961e-02  -7.5995785764979159e-05  5.5768265080544380e-05  8.0687417872890250e-06  4.2413447768556428e-04  8.6168595381022403e-05  9.1006486903416866e-05  2.1963003803335539e-05  4.6085426503478732e-04  8.3440529977278386e-05  9.6457359296559700e-02  -9.6300144883870981e-02  2.3392822565890109e-05  2.3582077358046369e-05  9.1884952101564516e-05  1.0870007081721315e-04  9.6189252803943401e-02  -6.0004141199673647e-04  -9.6446952245688819e-02  1.6193239313913674e-03  7.5099547847302925e-02  -1.4576861723851104e-03  -7.5001979421725401e-02  4.4898205972633207e-02  -4.2772829657524731e-03  3.3460096141042041e-02  -3.8681838609584927e-02  -5.5743885039179781e-03  -2.8328570879934435e-02  1.3745051317637482e-02  -9.7990750318689077e-03  -7.5334614701134334e-03  1.1164651063555058e-02  9.1927419230921400e-03  7.6299735013926392e-03  2.1723509213921913e-03  4.7643146175939503e-03  2.6756947731369335e-03  7.6133499903247248e-02  -9.6354168839268617e-02  5.6216436219662499e-04  1.0586892275577276e-04  5.2720070436360089e-04  7.5223462096007016e-05  -7.6087104113936307e-02  9.6233445695888681e-02  1.7705708252015999e-05  7.8210401196598904e-05  8.1669009251359305e-06  7.3237022699799021e-05  -8.3511493105589395e-05  2.2338000152596931e-04  9.6158352386449666e-02  -9.6516165945229701e-02  3.3586886246100141e-05  2.7292459524614346e-04  3.0219065865746264e-04  6.1209463323744201e-05  -3.5112651609486996e-04  9.5240369210335531e-04  6.2518829702539550e-06  8.4102145294229775e-05  2.5631006629312007e-04  8.5733945498693828e-02  -8.5782362906199311e-02  2.1771703256626092e-05  1.0375398133290049e-04  -7.4813070636930816e-04  -1.0308052222069606e-03  6.8840009420702605e-02  5.5623802551769935e-02  -1.8545471625292023e-03  -2.2112920659265044e-03  -6.0177587273258101e-02  -2.6494390960649376e-03  -3.2966165464678185e-03  3.6255143928298261e-02  -4.8236455092950298e-02  2.7236424719792211e-02  2.3184354677024038e-02  1.9256296586263912e-02  -3.0967061552692868e-02  1.6462594765602426e-02  -6.0262462328142799e-03  -2.2606374071301449e-02  -1.9030456118068376e-02  -1.5166237528225499e-02  -1.2240793273660858e-02  4.9609471817945992e-06  7.5185660579481665e-05  -1.1119690719400948e-02  6.4078006505726851e-03  -9.6610766619710534e-02  2.3588333908456668e-04  9.6643378929795548e-02  2.8158207252623160e-02  -3.2598075930356539e-02  4.9985579543410069e-02  -5.4515635224713754e-02  6.7612674429826797e-02  -9.5355320321008810e-02  9.6495423389594812e-02  -9.6085444225005687e-02  -8.4789209016019038e-02  8.4709443123155731e-02  9.6436058515176212e-02  6.3902982120370953e-03  5.6805394041630668e-03  2.9760793197347801e-06  7.5989167460134620e-05  5.0563180721907731e-03  2.4078015047761334e-04  3.9329190567718303e-03  3.3878118749223049e-03  2.5089526399885447e-07  7.1945647467073299e-05  2.4022916777802892e-04  -2.7368144522407764e-06  -5.5649933235208919e-06  6.6677110538298064e-05  6.6390088804839167e-05  1.7424038097111201e-04  1.4678070677183976e-04  6.0242911731813386e-04  8.6123756468374068e-05  1.0839317101132853e-04  5.7751817150094242e-04  6.0629630080758564e-04  9.6024613447160854e-05  1.0725484479807034e-04  6.1972261391757190e-04  6.2178345360362904e-04  1.0282268111087670e-04  2.0013273761088000e-05  8.3688389948200238e-05  9.0727514238579261e-06  7.6992609186106627e-05  -8.4485842456331382e-05  2.4228119063607643e-04  9.6388097577034773e-02  -9.6044697864640802e-02  9.3776663085917172e-02  -9.3775730677695970e-02  7.2851447497183878e-05  1.3962799977818832e-04  1.4360775464100758e-04  2.0921233065529209e-04  2.0920950762567765e-04  2.8690448106626895e-04  2.8887712495477514e-04  3.7572360149260915e-04  3.8981215180000823e-04  5.0397620063304788e-04  4.9935780365610648e-04  3.5961163504721384e-04  2.1059544626993816e-04  3.8045676529427006e-04  5.5250200665774506e-04  6.7509465135962531e-04  6.0221251658285372e-04  7.9121514998849857e-04  7.4764016189409247e-04  9.0448720107642292e-04  8.5464718370983092e-04  1.0099131561417045e-03  9.4894316380885152e-04  1.0991222819384187e-03  1.0064812026092183e-03  1.1815499504405308e-03  1.0964021029112511e-03  1.2611632731937157e-03  1.1555204313373024e-03  1.3295672936138848e-03  1.2033322881661887e-03  1.3866202599858721e-03  1.2426594004720461e-03  1.4371320419222019e-03  1.2713964957874978e-03  1.4783031907390073e-03  1.2865890414499926e-03  1.5119837701458214e-03  1.2981348821051518e-03  1.5357431381121289e-03  1.2964611476883586e-03  1.5552648382573342e-03  1.2892263020027586e-03  1.5643391524086800e-03  