<?xml version="1.0"?>
<VTKFile type="UnstructuredGrid"  version="0.1"  >
<UnstructuredGrid>
<Piece  NumberOfPoints="9764" NumberOfCells="18766">
<Points>
<DataArray  type="Float64"  NumberOfComponents="3"  format="ascii">0 0 0  450 0 0  450 225 0  0 225 0  224 0 0  226 0 0  225 1 0  226 1 0  230 0.5 0  234 0 0  236 0 0  235 1 0  236 1 0  240 0.5 0  244 0 0  246 0 0  245 1 0  246 1 0  450 9.782608695661354 0  450 19.56521739132493 0  450 29.34782608698428 0  450 39.13043478263055 0  450 48.91304347827662 0  450 58.69565217392267 0  450 68.47826086956874 0  450 78.26086956521479 0  450 88.04347826086087 0  450 97.82608695650693 0  450 107.608695652153 0  450 117.3913043478299 0  450 127.1739130435357 0  450 136.9565217391855 0  450 146.7391304348315 0  450 156.5217391304776 0  450 166.3043478261236 0  450 176.0869565217697 0  450 185.8695652174157 0  450 195.6521739130618 0  450 205.4347826087078 0  450 215.2173913043539 0  440.217391304352 225 0  430.4347826087039 225 0  420.6521739130558 225 0  410.8695652174077 225 0  401.0869565217596 225 0  391.3043478261116 225 0  381.5217391304635 225 0  371.7391304348154 225 0  361.9565217391673 225 0  352.1739130435193 225 0  342.3913043478713 225 0  332.6086956522231 225 0  322.8260869565751 225 0  313.043478260927 225 0  303.2608695652789 225 0  293.4782608696308 225 0  283.6956521739828 225 0  273.9130434783347 225 0  264.1304347826866 225 0  254.3478260870386 225 0  244.5652173913905 225 0  234.7826086957424 225 0  225.0000000000888 225 0  215.2173913043845 225 0  205.4347826086747 225 0  195.6521739129687 225 0  185.8695652173134 225 0  176.0869565216654 225 0  166.3043478260173 225 0  156.5217391303692 225 0  146.7391304347212 225 0  136.956521739073 225 0  127.173913043425 225 0  117.3913043477769 225 0  107.6086956521288 225 0  97.82608695648076 225 0  88.04347826083261 225 0  78.26086956518463 225 0  68.47826086953654 225 0  58.69565217388845 225 0  48.91304347824035 225 0  39.13043478259226 225 0  29.34782608694422 225 0  19.56521739129619 225 0  9.782608695648094 225 0  0 215.2173913043519 0  0 205.4347826087039 0  0 195.6521739130558 0  0 185.8695652174077 0  0 176.0869565217596 0  0 166.3043478261116 0  0 156.5217391304635 0  0 146.7391304348154 0  0 136.9565217391674 0  0 127.1739130435193 0  0 117.3913043478712 0  0 107.6086956521923 0  0 97.82608695648437 0  0 88.0434782608327 0  0 78.26086956518458 0  0 68.47826086953651 0  0 58.69565217388845 0  0 48.91304347824038 0  0 39.13043478259232 0  0 29.34782608694422 0  0 19.56521739129613 0  0 9.782608695648094 0  224.0020089923861 0.063355731562034 0  224.0078669237896 0.1251876954392177 0  224.0173189540956 0.1853050512541301 0  224.0301104026608 0.243545003999721 0  224.0459888465302 0.2997711111084815 0  224.0647058707711 0.3538712927462628 0  224.0860185776573 0.4057560345977113 0  224.1096908286717 0.4553565410189064 0  224.1354942695903 0.5026229621582694 0  224.1632091334853 0.5475226440227238 0  224.1926249250355 0.5900385481695689 0  224.2235407638306 0.6301674813628185 0  224.2557657849086 0.6679187323973781 0  224.2891195163637 0.7033128308121627 0  224.3234314721495 0.736379675929636 0  224.3585416405058 0.7671578540528868 0  224.3943001347868 0.7956932029876407 0  224.4305670884679 0.8220378089017952 0  224.4672124255662 0.8462490180372396 0  224.5041156045838 0.8683885457459335 0  224.5411652540955 0.8885216237947197 0  224.5782590182344 0.9067163527252478 0  224.6153028595457 0.9230428538948069 0  224.6522110523273 0.9375728493705031 0  224.6889055603574 0.9503790031474065 0  224.72531568381 0.961534464509318 0  224.7613777251139 0.9711124599798758 0  224.7970345748618 0.9791859048201496 0  224.8322353596756 0.9858270768531486 0  224.8669348413503 0.9911072916458271 0  224.9010933583037 0.9950967170221953 0  224.9346762707545 0.997864124216049 0  224.9676536620218 0.9994767202988784 0  225.0323463381051 0.99947672029477 0  225.0653237301236 0.9978641241585631 0  225.0989066431223 0.9950967168804671 0  225.1330651602428 0.9911072914319439 0  225.1677646419726 0.9858270765726634 0  225.2029654269951 0.979185904435247 0  225.2386222604036 0.9711124635385281 0  225.2746843192525 0.9615344636344383 0  225.3110944429274 0.9503790020721721 0  225.3477889498758 0.9375728485532481 0  225.3846971416895 0.9230428533800188 0  225.4217409837351 0.9067163518091972 0  225.4588347483695 0.888521622521743 0  225.4958843983252 0.8683885440847672 0  225.5327875773925 0.846249016174439 0  225.5694329140487 0.8220378071585059 0  225.6056998679296 0.7956932009198679 0  225.641458362852 0.7671578512452597 0  225.6765685310523 0.736379672987914 0  225.7108804867128 0.7033128277025616 0  225.7442342180933 0.6679187290524371 0  225.7764592391041 0.6301674777468723 0  225.8073750777669 0.5900385443348745 0  225.8367908685816 0.5475226408638091 0  225.8645057322388 0.502622959012232 0  225.8903091726418 0.4553565384507763 0  225.9139814234573 0.4057560320869432 0  225.935294130113 0.3538712904094632 0  225.9540111540606 0.2997711092283469 0  225.9698895977127 0.2435450025123902 0  225.9826810461417 0.1853050499957777 0  225.9921330763121 0.1251876946332835 0  225.9979910076399 0.06335573115285377 0  9.724657309557664 0 0  19.02990561489478 0 0  27.93382974437208 0 0  36.4537404975454 0 0  44.60620016225933 0 0  52.40705568240647 0 0  59.87147154317288 0 0  67.01395653385165 0 0  73.84839875777189 0 0  80.38807968606275 0 0  86.64571284056197 0 0  92.63346328245085 0 0  98.36297046378698 0 0  103.8453721348713 0 0  109.0913252627834 0 0  114.1110282135623 0 0  118.914238357087 0 0  123.5102929000238 0 0  127.9081253730336 0 0  132.1162857391113 0 0  136.1429549088198 0 0  139.9959585537756 0 0  143.6827874356201 0 0  147.2106089691988 0 0  150.5862812955824 0 0  153.8163648770172 0 0  156.9071395455719 0 0  159.8646136931983 0 0  162.6945358741549 0 0  165.4024075759797 0 0  167.9934921069113 0 0  170.4728273952023 0 0  172.8452319994138 0 0  175.1153183143408 0 0  177.2874990632585 0 0  179.3659966326073 0 0  181.3548516892633 0 0  183.2579303976732 0 0  185.0789313485823 0 0  186.8213956698771 0 0  188.4887097667209 0 0  190.0841148690362 0 0  191.6107125473505 0 0  193.0714699966116 0 0  194.4692272649741 0 0  195.8067009978392 0 0  197.0864915810537 0 0  198.3110864738335 0 0  199.482866160831 0 0  200.6041087807559 0 0  201.6769937811462 0 0  202.7036067754679 0 0  203.6859433789877 0 0  204.6259132873555 0 0  205.5253433791829 0 0  206.3859826682087 0 0  207.2095035890445 0 0  207.997507257115 0 0  208.7515253637376 0 0  209.4730237734672 0 0  210.1634049499469 0 0  210.8240109907306 0 0  211.4561260143591 0 0  212.060978785667 0 0  212.6397450141027 0 0  213.1935499460044 0 0  213.7234700471982 0 0  214.2305354641678 0 0  214.7157318316905 0 0  215.1800023503719 0 0  215.6242495509076 0 0  216.0493371210115 0 0  216.4560911509623 0 0  216.845302440869 0 0  217.21772760454 0 0  217.5740906239334 0 0  217.9150841433838 0 0  218.241371125184 0 0  218.5535858412163 0 0  218.8523351331747 0 0  219.1381997902312 0 0  219.4117355022302 0 0  219.6734739944899 0 0  219.9239241281105 0 0  220.1635726506841 0 0  220.3928854518087 0 0  220.61230834362 0 0  220.8222678864888 0 0  221.0231721146276 0 0  221.2154116317471 0 0  221.3993601212488 0 0  221.5753751763791 0 0  221.7437989502984 0 0  221.9049588503808 0 0  222.0591681367364 0 0  222.2067265977104 0 0  222.3479210690713 0 0  222.4830260263524 0 0  222.6123041189778 0 0  222.7360065812347 0 0  222.8543739478548 0 0  222.9676363098526 0 0  223.0760138277523 0 0  223.1797171723988 0 0  223.2789479251624 0 0  223.3738989996738 0 0  223.4647549720281 0 0  223.5516924491118 0 0  223.6348804347739 0 0  223.7144806430749 0 0  223.7906478148444 0 0  223.8635299801972 0 0  223.9332688577469 0 0  234.0020089923861 0.063355731562034 0  234.0078669237896 0.1251876954392177 0  234.0173189540956 0.1853050512541301 0  234.0301104026608 0.243545003999721 0  234.0459888465302 0.2997711111084815 0  234.0647058707711 0.3538712927462628 0  234.0860185776573 0.4057560345977113 0  234.1096908286717 0.4553565410189064 0  234.1354942695903 0.5026229621582694 0  234.1632091334853 0.5475226440227238 0  234.1926249250355 0.5900385481695689 0  234.2235407638306 0.6301674813628185 0  234.2557657849086 0.6679187323973781 0  234.2891195163637 0.7033128308121627 0  234.3234314721495 0.736379675929636 0  234.3585416405058 0.7671578540528868 0  234.3943001347868 0.7956932029876407 0  234.4305670884679 0.8220378089017952 0  234.4672124255662 0.8462490180372396 0  234.5041156045838 0.8683885457459335 0  234.5411652540955 0.8885216237947197 0  234.5782590182344 0.9067163527252478 0  234.6153028595457 0.9230428538948069 0  234.6522110523273 0.9375728493705031 0  234.6889055603574 0.9503790031474065 0  234.72531568381 0.961534464509318 0  234.7613777251139 0.9711124599798758 0  234.7970345748618 0.9791859048201496 0  234.8322353596756 0.9858270768531486 0  234.8669348413503 0.9911072916458271 0  234.9010933583037 0.9950967170221953 0  234.9346762707545 0.997864124216049 0  234.9676536620218 0.9994767202988784 0  235.0323463381051 0.99947672029477 0  235.0653237301236 0.9978641241585631 0  235.0989066431223 0.9950967168804671 0  235.1330651602428 0.9911072914319439 0  235.1677646419726 0.9858270765726634 0  235.2029654269951 0.979185904435247 0  235.2386222604036 0.9711124635385281 0  235.2746843192525 0.9615344636344383 0  235.3110944429274 0.9503790020721721 0  235.3477889498758 0.9375728485532481 0  235.3846971416895 0.9230428533800188 0  235.4217409837351 0.9067163518091972 0  235.4588347483695 0.888521622521743 0  235.4958843983252 0.8683885440847672 0  235.5327875773925 0.846249016174439 0  235.5694329140487 0.8220378071585059 0  235.6056998679296 0.7956932009198679 0  235.641458362852 0.7671578512452597 0  235.6765685310523 0.736379672987914 0  235.7108804867128 0.7033128277025616 0  235.7442342180933 0.6679187290524371 0  235.7764592391041 0.6301674777468723 0  235.8073750777669 0.5900385443348745 0 
[...]
<PointData  Scalars="foodini"> 
<DataArray  type="Float64"  Name="foodini"  format="ascii">-1.0000000000000001e-01  1.0000000000000001e-01  1.0000000000000001e-01  -1.0000000000000001e-01  0.0000000000000000e+00  0.0000000000000000e+00  0.0000000000000000e+00  2.0105902507570276e-05  1.0870404003002813e-03  0.0000000000000000e+00  0.0000000000000000e+00  0.0000000000000000e+00  1.3033563714244681e-03  4.2970545600533941e-03  0.0000000000000000e+00  0.0000000000000000e+00  0.0000000000000000e+00  2.8195001669157962e-03  1.0000000000000002e-01  9.9999999999999992e-02  1.0000000000000001e-01  1.0000000000000001e-01  1.0000000000000001e-01  1.0000000000000001e-01  1.0000000000000001e-01  1.0000000000000001e-01  9.9999999999999992e-02  1.0000000000000001e-01  1.0000000000000001e-01  9.9999999999999992e-02  1.0000000000000002e-01  1.0000000000000002e-01  1.0000000000000001e-01  1.0000000000000002e-01  1.0000000000000001e-01  1.0000000000000002e-01  1.0000000000000001e-01  1.0000000000000002e-01  1.0000000000000001e-01  9.9999999999999992e-02  9.5647992915473004e-02  9.1296000206925798e-02  8.6944036203786240e-02  8.2592115866065602e-02  7.8240254571107851e-02  7.3888468425140144e-02  6.9536774380273697e-02  6.5185190241470806e-02  6.0833734763808239e-02  5.6482427591735621e-02  5.2131289090998671e-02  4.7780340339500314e-02  4.3429602647349567e-02  3.9079097230430591e-02  3.4728844697184687e-02  3.0378865193650125e-02  2.6029176458557398e-02  2.1679794810786385e-02  1.7330733383671543e-02  1.2982002358612025e-02  8.6336082774755088e-03  4.2855538030145751e-03  -6.2162283864513796e-05  -4.4095451256349182e-03  -8.7566034981824137e-03  -1.3103349444319493e-02  -1.7449797990353153e-02  -2.1795965867970529e-02  -2.6141872276947507e-02  -3.0487536834765048e-02  -3.4832980073061917e-02  -3.9178222374863417e-02  -4.3523283827089476e-02  -4.7868183874486069e-02  -5.2212940951813912e-02  -5.6557572466573509e-02  -6.0902094615200304e-02  -6.5246522381920746e-02  -6.9590869611138209e-02  -7.3935149071723091e-02  -7.8279372299015201e-02  -8.2623550192279557e-02  -8.6967692725469545e-02  -9.1311809353800524e-02  -9.5655908887026644e-02  -1.0000000000000001e-01  -1.0000000000000001e-01  -9.9999999999999992e-02  -1.0000000000000001e-01  -1.0000000000000001e-01  -1.0000000000000001e-01  -1.0000000000000002e-01  -9.9999999999999992e-02  -1.0000000000000002e-01  -1.0000000000000001e-01  -1.0000000000000001e-01  -9.9999999999999992e-02  -1.0000000000000001e-01  -1.0000000000000001e-01  -1.0000000000000002e-01  -9.9999999999999992e-02  -1.0000000000000001e-01  -9.9999999999999992e-02  -9.9999999999999992e-02  -1.0000000000000002e-01  -1.0000000000000001e-01  -1.0000000000000001e-01  0.0000000000000000e+00  0.0000000000000000e+00  0.0000000000000000e+00  0.0000000000000000e+00  0.0000000000000000e+00  0.0000000000000000e+00  0.0000000000000000e+00  0.0000000000000000e+00  0.0000000000000000e+00  0.0000000000000000e+00  0.0000000000000000e+00  0.0000000000000000e+00  0.0000000000000000e+00  0.0000000000000000e+00  0.0000000000000000e+00  0.0000000000000000e+00  0.0000000000000000e+00  0.0000000000000000e+00  0.0000000000000000e+00  0.0000000000000000e+00  0.0000000000000000e+00  0.0000000000000000e+00  0.0000000000000000e+00  0.0000000000000000e+00  0.0000000000000000e+00  0.0000000000000000e+00  0.0000000000000000e+00  0.0000000000000000e+00  0.0000000000000000e+00  0.0000000000000000e+00  0.0000000000000000e+00  0.0000000000000000e+00  0.0000000000000000e+00  0.0000000000000000e+00  0.0000000000000000e+00  0.0000000000000000e+00  0.0000000000000000e+00  0.0000000000000000e+00  0.0000000000000000e+00  0.0000000000000000e+00  0.0000000000000000e+00  0.0000000000000000e+00  0.0000000000000000e+00  0.0000000000000000e+00  0.0000000000000000e+00  0.0000000000000000e+00  0.0000000000000000e+00  0.0000000000000000e+00  0.0000000000000000e+00  0.0000000000000000e+00  0.0000000000000000e+00  0.0000000000000000e+00  0.0000000000000000e+00  0.0000000000000000e+00  0.0000000000000000e+00  0.0000000000000000e+00  0.0000000000000000e+00  0.0000000000000000e+00  0.0000000000000000e+00  0.0000000000000000e+00  0.0000000000000000e+00  0.0000000000000000e+00  0.0000000000000000e+00  0.0000000000000000e+00  0.0000000000000000e+00  0.0000000000000000e+00  -9.5682895041594274e-02  -9.1552006860962112e-02  -8.7599327917108338e-02  -8.3817190610380371e-02  -8.0198256074515542e-02  -7.6735500745854140e-02  -7.3422202466303932e-02  -7.0251928365209507e-02  -6.7218520249787223e-02  -6.4316088587377640e-02  -6.1538994459464744e-02  -5.8881842659086039e-02  -5.6339470290070547e-02  -5.3906936897249423e-02  -5.1579514977609271e-02  -4.9352680229383633e-02  -4.7222103688720818e-02  -4.5183642996384110e-02  -4.3233334015387204e-02  -4.1367383100752844e-02  -3.9582159734227421e-02  -3.7874191594522585e-02  -3.6240153450554674e-02  -3.4676864645000270e-02  -3.3181280549151766e-02  -3.1750488991361771e-02  -3.0381701753313117e-02  -2.9072250991962052e-02  -2.7819583715235328e-02  -2.6621256394432777e-02  -2.5474930841015070e-02  -2.4378368790670991e-02  -2.3329428771422998e-02  -2.2326060495424547e-02  -2.1366302042310333e-02  -2.0448275560434329e-02  -1.9570183542286360e-02  -1.8730305490336833e-02  -1.7926994848941762e-02  -1.7158674636587091e-02  -1.6423836083111702e-02  -1.5721034409390430e-02  -1.5048886513862011e-02  -1.4406068359733694e-02  -1.3791311997447037e-02  -1.3203403721368903e-02  -1.2641181184291887e-02  -1.2103531348896322e-02  -1.1589388658184608e-02  -1.1097732114557425e-02  -1.0627584322856857e-02  -1.0178008980931040e-02  -9.7481093335979492e-03  -9.3370262737233391e-03  -8.9439369618332151e-03  -8.5680527815727454e-03  -8.2086185244055598e-03  -7.8649103053770285e-03  -7.5362345117521703e-03  -7.2219263422360356e-03  -6.9213486798190612e-03  -6.6338907395452999e-03  -6.3589669831446991e-03  -6.0960159938228502e-03  -5.8444993814478789e-03  -5.6039006670444650e-03  -5.3737245039072448e-03  -5.1534955414797605e-03  -4.9427575742817184e-03  -4.7410726494902253e-03  -4.5480201792754858e-03  -4.3631960837276071e-03  -4.1862122337600902e-03  -4.0166952985265097e-03  -3.8542860768828748e-03  -3.6986390085790460e-03  -3.5494210757078576e-03  -3.4063109755850846e-03  -3.2689996695980639e-03  -3.1371876884801709e-03  -3.0105859165806379e-03  -2.8889139870918587e-03  -2.7718998802397491e-03  -2.6592802081411349e-03  -2.5507975708824932e-03  -2.4462014075980515e-03  -2.3452458442641149e-03  -2.2476878533255447e-03  -2.1532937386503021e-03  -2.0618257193775295e-03  -1.9730506760038949e-03  -1.8867367982423231e-03  -1.8026504322465140e-03  -1.7205549827743146e-03  -1.6402121160110318e-03  -1.5613760853273441e-03  -1.4837946415782639e-03  -1.4072080408256201e-03  -1.3313412053255163e-03  -1.2559056152707348e-03  -1.1805966504782731e-03  -1.1050812760967110e-03  -1.0290047151073878e-03  -9.5197688959207253e-04  -8.7356889997107056e-04  -7.9329976356052386e-04  -7.1064038271105915e-04  -6.2498246458771959e-04  -5.3562907791634474e-04  -4.4179936331129808e-04  -3.4256352903728993e-04  -2.3683395484717137e-04  -1.2336510034013053e-04  0.0000000000000000e+00  0.0000000000000000e+00  0.0000000000000000e+00  0.0000000000000000e+00  0.0000000000000000e+00  0.0000000000000000e+00  0.0000000000000000e+00  0.0000000000000000e+00  0.0000000000000000e+00  0.0000000000000000e+00  0.0000000000000000e+00  0.0000000000000000e+00  0.0000000000000000e+00  0.0000000000000000e+00  0.0000000000000000e+00  0.0000000000000000e+00  0.0000000000000000e+00  0.0000000000000000e+00  0.0000000000000000e+00  0.0000000000000000e+00  0.0000000000000000e+00  0.0000000000000000e+00  0.0000000000000000e+00  0.0000000000000000e+00  0.0000000000000000e+00  0.0000000000000000e+00  0.0000000000000000e+00  0.0000000000000000e+00  0.0000000000000000e+00  0.0000000000000000e+00  0.0000000000000000e+00  0.0000000000000000e+00  0.0000000000000000e+00  0.0000000000000000e+00  0.0000000000000000e+00  0.0000000000000000e+00  0.0000000000000000e+00  0.0000000000000000e+00  0.0000000000000000e+00  0.0000000000000000e+00  0.0000000000000000e+00  0.0000000000000000e+00  0.0000000000000000e+00  0.0000000000000000e+00  0.0000000000000000e+00  0.0000000000000000e+00  0.0000000000000000e+00  0.0000000000000000e+00  0.0000000000000000e+00  0.0000000000000000e+00  0.0000000000000000e+00  0.0000000000000000e+00  0.0000000000000000e+00  0.0000000000000000e+00  0.0000000000000000e+00  0.0000000000000000e+00  0.0000000000000000e+00  0.0000000000000000e+00  0.0000000000000000e+00  0.0000000000000000e+00  0.0000000000000000e+00  0.0000000000000000e+00  0.0000000000000000e+00  0.0000000000000000e+00  0.0000000000000000e+00  0.0000000000000000e+00  2.1840549006073693e-05  4.1526468914660046e-05  5.9837284790068071e-05  7.7247561187232183e-05  9.4081324682004775e-05  1.1056925177816652e-04  1.2687257127856768e-04  1.4310558602002860e-04  1.5934788820821594e-04  1.7565431682447754e-04  1.9206205901008727e-04  2.0859496634370464e-04  2.2526763959528128e-04  2.4208769542549268e-04  2.5905785260750048e-04  2.7617707242261853e-04  2.9344162152277424e-04  3.1084595642531592e-04  3.2838321524715833e-04  3.4604550985283699e-04  3.6382441732769725e-04  3.8171122493410597e-04  3.9969679079793029e-04  4.1777214352588785e-04  4.3592812666399351e-04  4.5415578545772824e-04  4.7244614512104551e-04  4.9079055864365278e-04  5.0918023299315572e-04  5.2760695870403642e-04  5.4606239536794709e-04  5.6453838680563186e-04  5.8302712255523133e-04  6.0152065888000961e-04  6.2001157036648317e-04  6.3849222640357140e-04  6.5695522097043691e-04  6.7539324511031349e-04  6.9379916823993418e-04  7.1216577335968462e-04  7.3048598784750650e-04  7.4875280311451217e-04  7.6695912398792225e-04  7.8509796804099492e-04  8.0316223625713425e-04  8.2114492325607955e-04  8.3903884566890552e-04  8.5683683006986650e-04  8.7453174938724302e-04  8.9211604525772886e-04  9.0958244703047907e-04  9.2692324426069280e-04  9.4413068732397232e-04  9.6119700486972789e-04  9.7811376941697725e-04  9.9487302957356285e-04  1.0114659994560297e-03  1.0278839702844169e-03  1.0441175020571164e-03  1.0601576728238866e-03  1.0759943660255936e-03  1.0916177693905463e-03  1.1070171182463386e-03  1.1221818572536596e-03  1.1371003090140427e-03  1.1517609440863520e-03  1.1661510440848784e-03  1.1802579505310496e-03  1.1940678710569506e-03  1.2075666136953963e-03  1.2207390676535290e-03  1.2335695440244300e-03  1.2460413855545133e-03  1.2581369350347107e-03  1.2698381031581438e-03  1.2811248823518270e-03  1.2919768413618235e-03  1.3023721246430001e-03  1.3122872400994393e-03  1.3216972887335470e-03  1.3305761840754023e-03  1.3388954819226603e-03  1.3466255508795414e-03  1.3537338477514220e-03  1.3601867891628258e-03  1.3659471257921759e-03  1.3709755307051434e-03  1.3752296291405543e-03  1.3786638426278263e-03  1.3812289101937229e-03  1.3828718896465896e-03  1.3835352060188463e-03  1.3831565364896634e-03  1.3816687892801982e-03  1.3789984005760758e-03  1.3750649441723686e-03  1.3697815069088504e-03  1.3630523345428099e-03  1.3547733419388155e-03  1.3448295652434502e-03  1.3330927618821541e-03  1.3194256392613801e-03  1.3036717233946835e-03  1.2856606152048785e-03  1.2652003371071293e-03  1.2420785221717290e-03  1.2160571438728121e-03  1.1868667693029551e-03  1.1542080262940664e-03  1.1177356916103574e-03  1.0770686688804610e-03  1.0317558494650745e-03  9.8130084056617314e-04  9.2511608692824869e-04  8.6253303612703470e-04  7.9276049894545547e-04  7.1489730986131308e-04  6.2786299925706389e-04  5.3039243717925761e-04  4.2095604790657389e-04  2.9777135857575725e-04  1.5861145504492187e-04  0.0000000000000000e+00  0.0000000000000000e+00  0.0000000000000000e+00  0.0000000000000000e+00  0.0000000000000000e+00  0.0000000000000000e+00  0.0000000000000000e+00  0.0000000000000000e+00  0.0000000000000000e+00  0.0000000000000000e+00  0.0000000000000000e+00  0.0000000000000000e+00  0.0000000000000000e+00  0.0000000000000000e+00  0.0000000000000000e+00  0.0000000000000000e+00  0.0000000000000000e+00  0.0000000000000000e+00  0.0000000000000000e+00  0.0000000000000000e+00  0.0000000000000000e+00  0.0000000000000000e+00  0.0000000000000000e+00  0.0000000000000000e+00  0.0000000000000000e+00  0.0000000000000000e+00  0.0000000000000000e+00  0.0000000000000000e+00  0.0000000000000000e+00  0.0000000000000000e+00  0.0000000000000000e+00  0.0000000000000000e+00  0.0000000000000000e+00  0.0000000000000000e+00  0.0000000000000000e+00  0.0000000000000000e+00  0.0000000000000000e+00  0.0000000000000000e+00  0.0000000000000000e+00  0.0000000000000000e+00  0.0000000000000000e+00  0.0000000000000000e+00  0.0000000000000000e+00  0.0000000000000000e+00  0.0000000000000000e+00  0.0000000000000000e+00  0.0000000000000000e+00  0.0000000000000000e+00  0.0000000000000000e+00  0.0000000000000000e+00  0.0000000000000000e+00  0.0000000000000000e+00  0.0000000000000000e+00  0.0000000000000000e+00  0.0000000000000000e+00  0.0000000000000000e+00  0.0000000000000000e+00  0.0000000000000000e+00  0.0000000000000000e+00  0.0000000000000000e+00  0.0000000000000000e+00  0.0000000000000000e+00  0.0000000000000000e+00  0.0000000000000000e+00  0.0000000000000000e+00  0.0000000000000000e+00  2.8779294551858637e-04  5.4153671806993675e-04  7.6833479704817612e-04  9.7254192402813965e-04  1.1576587236076211e-03  1.3264743107757949e-03  1.4812819385992756e-03  1.6239336597712562e-03  1.7559859408076699e-03  1.8787257102146359e-03  1.9932451517505993e-03  2.1004656068722718e-03  2.2011748146767204e-03  2.2960511690188539e-03  2.3856771581108453e-03  2.4705556251781156e-03  2.5511242730256343e-03  2.6277760232966824e-03  2.7008392330556442e-03  2.7706211344203703e-03  2.8373777149751280e-03  2.9013483245639415e-03  2.9627395026109340e-03  3.0217369687895656e-03  3.0785084899837322e-03  3.1332014412375044e-03  3.1859505273468809e-03  3.2368770998772735e-03  3.2860894864441569e-03  3.3336860762262208e-03  3.3797573979439518e-03  3.4243815563002660e-03  3.4676336501857060e-03  3.5095799275427111e-03  3.5502794153359951e-03  3.5897874157096391e-03  3.6281536805689257e-03  3.6654231604411371e-03  3.7016363293213080e-03  3.7368304456571579e-03  3.7710387561372908e-03  3.8042913596376864e-03  3.8366155113566851e-03  3.8680353131213124e-03  3.8985723201853204e-03  3.9282457830857390e-03  3.9570724477715619e-03  3.9850668830046761e-03  4.0122420783659804e-03  4.0386079253709548e-03  4.0641735265516702e-03  4.0889456263273173e-03  4.1129293415878522e-03  4.1361280630830286e-03  4.1585434994929060e-03  4.1801757446411078e-03  4.2010231824953139e-03  4.2210828587526533e-03  4.2403498682077097e-03  4.2588180612451801e-03  4.2764793302451165e-03  4.2933244532157933e-03  4.3093421372232734e-03  4.3245194305074506e-03  4.3388418435248901e-03  4.3522927296556447e-03  4.3648541851178278e-03  4.3765060678147456e-03  4.3872258317658756e-03  4.3969900221018194e-03  4.4057720479525764e-03  4.4135421216246690e-03  4.4202707495824400e-03  4.4259224715389013e-03  4.4304626672918516e-03  4.4338508058833310e-03  4.4360446545799867e-03  4.4369978087322815e-03  4.4366616377134556e-03  4.4349820101444006e-03  4.4319022240597722e-03  4.4273596620732257e-03  4.4212877854096578e-03  4.4136142306327852e-03  4.4042610719879690e-03  4.3931446124660222e-03  4.3801708540208038e-03  4.3652458369979399e-03  4.3482597330654514e-03  4.3290974923280738e-03  4.3076332612520529e-03  4.2837299605818025e-03  4.2572385224670635e-03  4.2279973031833368e-03  4.1958278941571590e-03  4.1605367703968811e-03  4.1219107253916750e-03  4.0797164995743929e-03  4.0336964822873479e-03  3.9835671974320277e-03  3.9290158290645437e-03  3.8696932821621773e-03  3.8052150439810131e-03  3.7351526308694767e-03  3.6590232893678526e-03  3.5762910252485282e-03  3.4863525876251827e-03  3.3885221908441657e-03  3.2820344472498540e-03  3.1660025602600426e-03  3.0394428710458069e-03  2.9011844790635564e-03  2.7499321285006165e-03  2.5841429265320891e-03  2.4020493864925544e-03  2.2015442952476199e-03  1.9802082122021146e-03  1.7351139934747776e-03  1.4627991313433974e-03  1.1590286488176327e-03  8.1880221832454072e-04  4.3577727096068210e-04  6.2805217747612585e-04  1.2057382042561142e-03  1.7414126319420750e-03  2.2396944615135366e-03  2.7045566419653016e-03  3.1394765512007409e-03  3.5475585630794786e-03  3.9315562280831488e-03  4.2938951405575819e-03  4.6367710680360876e-03  4.9620923874061883e-03  5.2716483723894815e-03  5.5670390768425291e-03  5.8497333059010928e-03  6.1210245933769943e-03  6.3821677809544263e-03  6.6342689935556367e-03  6.8783931083627277e-03  7.1154830261265433e-03  7.3464969832513424e-03  7.5722079404539049e-03  7.7934675968761684e-03  8.0110023523357454e-03  8.2255411483508171e-03  8.4377870488867614e-03  8.6483849217890273e-03  8.8579753503156781e-03  9.0671740009974806e-03  9.2765871528648746e-03  9.4867969521449848e-03  9.6983773495410656e-03  9.9119060848120704e-03  1.0127946763183605e-02  1.0347062317558711e-02  1.0569811106112059e-02  1.0796757533345228e-02  1.1028469247702077e-02  1.1265519537635557e-02  1.1508487792723192e-02  1.1757967935909802e-02  1.2014558206601751e-02  1.2278874937688759e-02  1.2551548099004802e-02  1.2833223325083467e-02  1.3124567795730954e-02  1.3426264740228752e-02  1.3739025492980820e-02  1.4063581247343906e-02  1.4400690784345617e-02  1.4751145226488174e-02  1.5115758415068372e-02  1.5495381699142345e-02  1.5890896934292766e-02  1.6303226668872555e-02  1.6733330060843682e-02  1.7182208699645467e-02  1.7650905976923051e-02  1.8140511886819373e-02  1.8652166259247309e-02  1.9187058996650224e-02  1.9746436562310433e-02  2.0331599314843518e-02  2.0943911002805043e-02  2.1584796507489946e-02  2.2255748519966305e-02  2.2958331375192584e-02  2.3694182461953841e-02  2.4465016304769559e-02  2.5272630491780579e-02  2.6118907977641413e-02  2.7005822915898196e-02  2.7935446521221631e-02  2.8909944400027490e-02  2.9931593314512006e-02  3.1002776988448087e-02  3.2125996403573789e-02  3.3303874166925554e-02  3.4539160901072626e-02  3.5834741136043007e-02  3.7193641251232541e-02  3.8619035704967553e-02  4.0114254622378519e-02  4.1682791054768874e-02  4.3328310406158213e-02  4.5054657822016474e-02  4.6865868270284682e-02  4.8766175024319874e-02  5.0760019488039501e-02  5.2852062904448646e-02  5.5047196032319765e-02  5.7350551387674219e-02  5.9767514187249425e-02  6.2303737070231992e-02  6.4965150752831977e-02  6.7757980896506906e-02  7.0688760114157922e-02  7.3764346359542890e-02  7.6991934946066917e-02  8.0379080729130858e-02  8.3933715486079044e-02  8.7664162380978808e-02  9.1579162290435931e-02  9.5687895152971866e-02  -6.7778612494486905e-03  1.5283288939335758e-02  -3.9298659100486062e-03  -1.1332520396645384e-02  2.0574500663671568e-02  1.1913942771053329e-02  -2.6088560530323863e-03  -1.7542727385509736e-02  1.3836602198106472e-03  4.2677718774529229e-03  2.7581584238177852e-02  -2.4883614469952416e-02  -1.8458958144581697e-03  9.8075510445243350e-03  1.3261880749129771e-03  3.8978626884836557e-03  1.3568940156257329e-03  4.4094754025554338e-03  3.5163144413283096e-02  -3.3753989476178435e-02  -1.3702317090446745e-03  4.4184815231568100e-02  -5.0464850905601894e-03  -4.4160550938605971e-02  -8.7559184542729124e-03  3.3418369777868397e-03  1.1728165985519952e-03  8.3509362218064289e-03  6.2925628213365207e-04  5.0299003340000740e-04  3.5703978669328709e-03  3.2634730239330862e-03  3.8942702969451445e-04  2.9328193027397418e-03  3.7846923681463533e-03  7.4005263542018071e-04  1.3074834967372608e-03  4.4371888260323310e-03  1.2311100048659432e-04  3.2770907587021883e-04  -2.3466782731698596e-03  5.4018091309256326e-02  1.7426757141271846e-02  -3.1969474437199487e-03  -7.6932431046736825e-05  -5.5148558856979946e-02  -1.4098585446484884e-02  1.9192012837778636e-02  1.3250586386643500e-02  -2.3969046251469766e-02  4.1170054104114277e-02  -4.5683249090454001e-02  3.0153751710333118e-04  2.5964542042045068e-03  -9.9408937222446509e-04  7.2336673473421742e-03  3.9426877601385444e-03  8