<?xml version="1.0"?>
<VTKFile type="UnstructuredGrid"  version="0.1"  >
<UnstructuredGrid>
<Piece  NumberOfPoints="6391" NumberOfCells="12198">
<Points>
<DataArray  type="Float64"  NumberOfComponents="3"  format="ascii">0 0 0  450 0 0  450 225 0  0 225 0  224 0 0  226 0 0  225 1 0  226 1 0  227 0.5 0  228 0 0  230 0 0  229 1 0  230 1 0  231 0.5 0  232 0 0  234 0 0  233 1 0  234 1 0  450 9.782608695661354 0  450 19.56521739132493 0  450 29.34782608698428 0  450 39.13043478263055 0  450 48.91304347827662 0  450 58.69565217392267 0  450 68.47826086956874 0  450 78.26086956521479 0  450 88.04347826086087 0  450 97.82608695650693 0  450 107.608695652153 0  450 117.3913043478299 0  450 127.1739130435357 0  450 136.9565217391855 0  450 146.7391304348315 0  450 156.5217391304776 0  450 166.3043478261236 0  450 176.0869565217697 0  450 185.8695652174157 0  450 195.6521739130618 0  450 205.4347826087078 0  450 215.2173913043539 0  440.217391304352 225 0  430.4347826087039 225 0  420.6521739130558 225 0  410.8695652174077 225 0  401.0869565217596 225 0  391.3043478261116 225 0  381.5217391304635 225 0  371.7391304348154 225 0  361.9565217391673 225 0  352.1739130435193 225 0  342.3913043478713 225 0  332.6086956522231 225 0  322.8260869565751 225 0  313.043478260927 225 0  303.2608695652789 225 0  293.4782608696308 225 0  283.6956521739828 225 0  273.9130434783347 225 0  264.1304347826866 225 0  254.3478260870386 225 0  244.5652173913905 225 0  234.7826086957424 225 0  225.0000000000888 225 0  215.2173913043845 225 0  205.4347826086747 225 0  195.6521739129687 225 0  185.8695652173134 225 0  176.0869565216654 225 0  166.3043478260173 225 0  156.5217391303692 225 0  146.7391304347212 225 0  136.956521739073 225 0  127.173913043425 225 0  117.3913043477769 225 0  107.6086956521288 225 0  97.82608695648076 225 0  88.04347826083261 225 0  78.26086956518463 225 0  68.47826086953654 225 0  58.69565217388845 225 0  48.91304347824035 225 0  39.13043478259226 225 0  29.34782608694422 225 0  19.56521739129619 225 0  9.782608695648094 225 0  0 215.2173913043519 0  0 205.4347826087039 0  0 195.6521739130558 0  0 185.8695652174077 0  0 176.0869565217596 0  0 166.3043478261116 0  0 156.5217391304635 0  0 146.7391304348154 0  0 136.9565217391674 0  0 127.1739130435193 0  0 117.3913043478712 0  0 107.6086956521923 0  0 97.82608695648437 0  0 88.0434782608327 0  0 78.26086956518458 0  0 68.47826086953651 0  0 58.69565217388845 0  0 48.91304347824038 0  0 39.13043478259232 0  0 29.34782608694422 0  0 19.56521739129613 0  0 9.782608695648094 0  224.0020089923861 0.063355731562034 0  224.0078669237896 0.1251876954392177 0  224.0173189540956 0.1853050512541301 0  224.0301104026608 0.243545003999721 0  224.0459888465302 0.2997711111084815 0  224.0647058707711 0.3538712927462628 0  224.0860185776573 0.4057560345977113 0  224.1096908286717 0.4553565410189064 0  224.1354942695903 0.5026229621582694 0  224.1632091334853 0.5475226440227238 0  224.1926249250355 0.5900385481695689 0  224.2235407638306 0.6301674813628185 0  224.2557657849086 0.6679187323973781 0  224.2891195163637 0.7033128308121627 0  224.3234314721495 0.736379675929636 0  224.3585416405058 0.7671578540528868 0  224.3943001347868 0.7956932029876407 0  224.4305670884679 0.8220378089017952 0  224.4672124255662 0.8462490180372396 0  224.5041156045838 0.8683885457459335 0  224.5411652540955 0.8885216237947197 0  224.5782590182344 0.9067163527252478 0  224.6153028595457 0.9230428538948069 0  224.6522110523273 0.9375728493705031 0  224.6889055603574 0.9503790031474065 0  224.72531568381 0.961534464509318 0  224.7613777251139 0.9711124599798758 0  224.7970345748618 0.9791859048201496 0  224.8322353596756 0.9858270768531486 0  224.8669348413503 0.9911072916458271 0  224.9010933583037 0.9950967170221953 0  224.9346762707545 0.997864124216049 0  224.9676536620218 0.9994767202988784 0  225.0323463381051 0.99947672029477 0  225.0653237301236 0.9978641241585631 0  225.0989066431223 0.9950967168804671 0  225.1330651602428 0.9911072914319439 0  225.1677646419726 0.9858270765726634 0  225.2029654269951 0.979185904435247 0  225.2386222604036 0.9711124635385281 0  225.2746843192525 0.9615344636344383 0  225.3110944429274 0.9503790020721721 0  225.3477889498758 0.9375728485532481 0  225.3846971416895 0.9230428533800188 0  225.4217409837351 0.9067163518091972 0  225.4588347483695 0.888521622521743 0  225.4958843983252 0.8683885440847672 0  225.5327875773925 0.846249016174439 0  225.5694329140487 0.8220378071585059 0  225.6056998679296 0.7956932009198679 0  225.641458362852 0.7671578512452597 0  225.6765685310523 0.736379672987914 0  225.7108804867128 0.7033128277025616 0  225.7442342180933 0.6679187290524371 0  225.7764592391041 0.6301674777468723 0  225.8073750777669 0.5900385443348745 0  225.8367908685816 0.5475226408638091 0  225.8645057322388 0.502622959012232 0  225.8903091726418 0.4553565384507763 0  225.9139814234573 0.4057560320869432 0  225.935294130113 0.3538712904094632 0  225.9540111540606 0.2997711092283469 0  225.9698895977127 0.2435450025123902 0  225.9826810461417 0.1853050499957777 0  225.9921330763121 0.1251876946332835 0  225.9979910076399 0.06335573115285377 0  9.724657309557664 0 0  19.02990561489478 0 0  27.93382974437208 0 0  36.4537404975454 0 0  44.60620016225933 0 0  52.40705568240647 0 0  59.87147154317288 0 0  67.01395653385165 0 0  73.84839875777189 0 0  80.38807968606275 0 0  86.64571284056197 0 0  92.63346328245085 0 0  98.36297046378698 0 0  103.8453721348713 0 0  109.0913252627834 0 0  114.1110282135623 0 0  118.914238357087 0 0  123.5102929000238 0 0  127.9081253730336 0 0  132.1162857391113 0 0  136.1429549088198 0 0  139.9959585537756 0 0  143.6827874356201 0 0  147.2106089691988 0 0  150.5862812955824 0 0  153.8163648770172 0 0  156.9071395455719 0 0  159.8646136931983 0 0  162.6945358741549 0 0  165.4024075759797 0 0  167.9934921069113 0 0  170.4728273952023 0 0  172.8452319994138 0 0  175.1153183143408 0 0  177.2874990632585 0 0  179.3659966326073 0 0  181.3548516892633 0 0  183.2579303976732 0 0  185.0789313485823 0 0  186.8213956698771 0 0  188.4887097667209 0 0  190.0841148690362 0 0  191.6107125473505 0 0  193.0714699966116 0 0  194.4692272649741 0 0  195.8067009978392 0 0  197.0864915810537 0 0  198.3110864738335 0 0  199.482866160831 0 0  200.6041087807559 0 0  201.6769937811462 0 0  202.7036067754679 0 0  203.6859433789877 0 0  204.6259132873555 0 0  205.5253433791829 0 0  206.3859826682087 0 0  207.2095035890445 0 0  207.997507257115 0 0  208.7515253637376 0 0  209.4730237734672 0 0  210.1634049499469 0 0  210.8240109907306 0 0  211.4561260143591 0 0  212.060978785667 0 0  212.6397450141027 0 0  213.1935499460044 0 0  213.7234700471982 0 0  214.2305354641678 0 0  214.7157318316905 0 0  215.1800023503719 0 0  215.6242495509076 0 0  216.0493371210115 0 0  216.4560911509623 0 0  216.845302440869 0 0  217.21772760454 0 0  217.5740906239334 0 0  217.9150841433838 0 0  218.241371125184 0 0  218.5535858412163 0 0  218.8523351331747 0 0  219.1381997902312 0 0  219.4117355022302 0 0  219.6734739944899 0 0  219.9239241281105 0 0  220.1635726506841 0 0  220.3928854518087 0 0  220.61230834362 0 0  220.8222678864888 0 0  221.0231721146276 0 0  221.2154116317471 0 0  221.3993601212488 0 0  221.5753751763791 0 0  221.7437989502984 0 0  221.9049588503808 0 0  222.0591681367364 0 0  222.2067265977104 0 0  222.3479210690713 0 0  222.4830260263524 0 0  222.6123041189778 0 0  222.7360065812347 0 0  222.8543739478548 0 0  222.9676363098526 0 0  223.0760138277523 0 0  223.1797171723988 0 0  223.2789479251624 0 0  223.3738989996738 0 0  223.4647549720281 0 0  223.5516924491118 0 0  223.6348804347739 0 0  223.7144806430749 0 0  223.7906478148444 0 0  223.8635299801972 0 0  223.9332688577469 0 0  228.0020089923861 0.063355731562034 0  228.0078669237896 0.1251876954392177 0  228.0173189540956 0.1853050512541301 0  228.0301104026608 0.243545003999721 0  228.0459888465302 0.2997711111084815 0  228.0647058707711 0.3538712927462628 0  228.0860185776573 0.4057560345977113 0  228.1096908286717 0.4553565410189064 0  228.1354942695903 0.5026229621582694 0  228.1632091334853 0.5475226440227238 0  228.1926249250355 0.5900385481695689 0  228.2235407638306 0.6301674813628185 0  228.2557657849086 0.6679187323973781 0  228.2891195163637 0.7033128308121627 0  228.3234314721495 0.736379675929636 0  228.3585416405058 0.7671578540528868 0  228.3943001347868 0.7956932029876407 0  228.4305670884679 0.8220378089017952 0  228.4672124255662 0.8462490180372396 0  228.5041156045838 0.8683885457459335 0  228.5411652540955 0.8885216237947197 0  228.5782590182344 0.9067163527252478 0  228.6153028595457 0.9230428538948069 0  228.6522110523273 0.9375728493705031 0  228.6889055603574 0.9503790031474065 0  228.72531568381 0.961534464509318 0  228.7613777251139 0.9711124599798758 0  228.7970345748618 0.9791859048201496 0  228.8322353596756 0.9858270768531486 0  228.8669348413503 0.9911072916458271 0  228.9010933583037 0.9950967170221953 0  228.9346762707545 0.997864124216049 0  228.9676536620218 0.9994767202988784 0  229.0323463381051 0.99947672029477 0  229.0653237301236 0.9978641241585631 0  229.0989066431223 0.9950967168804671 0  229.1330651602428 0.9911072914319439 0  229.1677646419726 0.9858270765726634 0  229.2029654269951 0.979185904435247 0  229.2386222604036 0.9711124635385281 0  229.2746843192525 0.9615344636344383 0  229.3110944429274 0.9503790020721721 0  229.3477889498758 0.9375728485532481 0  229.3846971416895 0.9230428533800188 0  229.4217409837351 0.9067163518091972 0  229.4588347483695 0.888521622521743 0  229.4958843983252 0.8683885440847672 0  229.5327875773925 0.846249016174439 0  229.5694329140487 0.8220378071585059 0  229.6056998679296 0.7956932009198679 0  229.641458362852 0.7671578512452597 0  229.6765685310523 0.736379672987914 0  229.7108804867128 0.7033128277025616 0  229.7442342180933 0.6679187290524371 0  229.7764592391041 0.6301674777468723 0  229.8073750777669 0.5900385443348745 0 
[...]
<PointData  Scalars="foodini"> 
<DataArray  type="Float64"  Name="foodini"  format="ascii">-1.0000000000000000e+00  1.0000000000000000e+00  1.0000000000000000e+00  -1.0000000000000000e+00  0.0000000000000000e+00  0.0000000000000000e+00  0.0000000000000000e+00  1.1931496632390371e-04  1.1248057733074530e-03  0.0000000000000000e+00  0.0000000000000000e+00  0.0000000000000000e+00  4.6653679460343283e-03  6.7899855865606665e-03  0.0000000000000000e+00  0.0000000000000000e+00  0.0000000000000000e+00  1.3024439481275692e-02  1.0000000000000002e+00  1.0000000000000000e+00  1.0000000000000000e+00  1.0000000000000000e+00  9.9999999999999989e-01  1.0000000000000000e+00  1.0000000000000000e+00  1.0000000000000000e+00  9.9999999999999989e-01  1.0000000000000000e+00  1.0000000000000000e+00  1.0000000000000000e+00  1.0000000000000000e+00  1.0000000000000000e+00  1.0000000000000000e+00  1.0000000000000000e+00  1.0000000000000000e+00  1.0000000000000000e+00  1.0000000000000000e+00  9.9999999999999989e-01  1.0000000000000000e+00  1.0000000000000000e+00  9.5650823561812959e-01  9.1301651251687022e-01  8.6952487283241331e-01  8.2603335925239652e-01  7.8254201712020965e-01  7.3905089359913900e-01  6.9556003883333306e-01  6.5206950608699421e-01  6.0857935165429633e-01  5.6508963617047381e-01  5.2160042203290924e-01  4.7811177601828014e-01  4.3462376583824136e-01  3.9113646121197432e-01  3.4764993146741457e-01  3.0416424478021481e-01  2.6067946552184806e-01  2.1719565348665357e-01  1.7371286113619791e-01  1.3023113201498601e-01  8.6750499307387999e-02  4.3270984142016244e-02  -2.0740497370561208e-04  -4.3684672538654636e-02  -8.7160835965195999e-02  -1.3063592489335815e-01  -1.7410997931213235e-01  -2.1758304930870478e-01  -2.6105519189759557e-01  -3.0452646960880547e-01  -3.4799694881143722e-01  -3.9146669762333453e-01  -4.3493578425643331e-01  -4.7840427607953195e-01  -5.2187223747797984e-01  -5.6533973092435508e-01  -6.0880681471291620e-01  -6.5227354351212186e-01  -6.9573996819871764e-01  -7.3920613592959250e-01  -7.8267209040613805e-01  -8.2613787220410595e-01  -8.6960351909999212e-01  -9.1306906696517798e-01  -9.5653454963136364e-01  -1.0000000000000000e+00  -1.0000000000000002e+00  -1.0000000000000000e+00  -1.0000000000000002e+00  -1.0000000000000000e+00  -1.0000000000000000e+00  -1.0000000000000002e+00  -1.0000000000000000e+00  -1.0000000000000000e+00  -1.0000000000000000e+00  -1.0000000000000000e+00  -1.0000000000000000e+00  -1.0000000000000000e+00  -9.9999999999999989e-01  -1.0000000000000000e+00  -1.0000000000000002e+00  -1.0000000000000000e+00  -1.0000000000000000e+00  -1.0000000000000000e+00  -1.0000000000000000e+00  -1.0000000000000000e+00  -9.9999999999999989e-01  0.0000000000000000e+00  0.0000000000000000e+00  0.0000000000000000e+00  0.0000000000000000e+00  0.0000000000000000e+00  0.0000000000000000e+00  0.0000000000000000e+00  0.0000000000000000e+00  0.0000000000000000e+00  0.0000000000000000e+00  0.0000000000000000e+00  0.0000000000000000e+00  0.0000000000000000e+00  0.0000000000000000e+00  0.0000000000000000e+00  0.0000000000000000e+00  0.0000000000000000e+00  0.0000000000000000e+00  0.0000000000000000e+00  0.0000000000000000e+00  0.0000000000000000e+00  0.0000000000000000e+00  0.0000000000000000e+00  0.0000000000000000e+00  0.0000000000000000e+00  0.0000000000000000e+00  0.0000000000000000e+00  0.0000000000000000e+00  0.0000000000000000e+00  0.0000000000000000e+00  0.0000000000000000e+00  0.0000000000000000e+00  0.0000000000000000e+00  0.0000000000000000e+00  0.0000000000000000e+00  0.0000000000000000e+00  0.0000000000000000e+00  0.0000000000000000e+00  0.0000000000000000e+00  0.0000000000000000e+00  0.0000000000000000e+00  0.0000000000000000e+00  0.0000000000000000e+00  0.0000000000000000e+00  0.0000000000000000e+00  0.0000000000000000e+00  0.0000000000000000e+00  0.0000000000000000e+00  0.0000000000000000e+00  0.0000000000000000e+00  0.0000000000000000e+00  0.0000000000000000e+00  0.0000000000000000e+00  0.0000000000000000e+00  0.0000000000000000e+00  0.0000000000000000e+00  0.0000000000000000e+00  0.0000000000000000e+00  0.0000000000000000e+00  0.0000000000000000e+00  0.0000000000000000e+00  0.0000000000000000e+00  0.0000000000000000e+00  0.0000000000000000e+00  0.0000000000000000e+00  0.0000000000000000e+00  -9.5679694996346742e-01  -9.1545728619345934e-01  -8.7590074971507303e-01  -8.3805050503011957e-01  -8.0183302741980544e-01  -7.6717796256670800e-01  -7.3401798073889590e-01  -7.0228866033199511e-01  -6.7192833298171983e-01  -6.4287802221411039e-01  -6.1508127238484900e-01  -5.8848406275437160e-01  -5.6303470581612536e-01  -5.3868374180735379e-01  -5.1538384506363144e-01  -4.9308972747382246e-01  -4.7175805892553518e-01  -4.5134737508357342e-01  -4.3181800463010744e-01  -4.1313197956565784e-01  -3.9525297076175170e-01  -3.7814622668847625e-01  -3.6177848539116603e-01  -3.4611791722825053e-01  -3.3113406883931418e-01  -3.1679780894331289e-01  -3.0308124937276554e-01  -2.8995771154187744e-01  -2.7740166863622989e-01  -2.6538869097415851e-01  -2.5389540601729177e-01  -2.4289944211791026e-01  -2.3237940195754567e-01  -2.2231480313618066e-01  -2.1268604722464124e-01  -2.0347438479700833e-01  -1.9466186648423386e-01  -1.8623132172271775e-01  -1.7816632186556988e-01  -1.7045113567102729e-01  -1.6307071643816326e-01  -1.5601066261751814e-01  -1.4925719057130180e-01  -1.4279710918948757e-01  -1.3661779465087104e-01  -1.3070716280771663e-01  -1.2505364691362608e-01  -1.1964617970995342e-01  -1.1447416170239456e-01  -1.0952745069223804e-01  -1.0479633333950217e-01  -1.0027151250068647e-01  -9.5944087480723944e-02  -9.1805533231139214e-02  -8.7847687177518480e-02  -8.4062731453591902e-02  -8.0443179138320026e-02  -7.6981857761711237e-02  -7.3671896040288815e-02  -7.0506710368963180e-02  -6.7479991829826044e-02  -6.4585692856514304e-02  -6.1818018960979111e-02  -5.9171411067799579e-02  -5.6640540903735999e-02  -5.4220295741918452e-02  -5.1905771424907023e-02  -4.9692261769000032e-02  -4.7575248211446042e-02  -4.5550391809403679e-02  -4.3613525526978648e-02  -4.1760642761503639e-02  -3.9987893272782411e-02  -3.8291573328062004e-02  -3.6668117497676879e-02  -3.5114091692010754e-02  -3.3626187466928727e-02  -3.2201214197541142e-02  -3.0836090974811055e-02  -2.9527842020857641e-02  -2.8273584474233025e-02  -2.7070536423977103e-02  -2.5915983311140367e-02  -2.4807305427370422e-02  -2.3741936240020193e-02  -2.2717390440611895e-02  -2.1731205797319315e-02  -2.0781022281614915e-02  -1.9864456163471954e-02  -1.8979201004664659e-02  -1.8122951234950307e-02  -1.7293418317673143e-02  -1.6488314741304206e-02  -1.5705338107479386e-02  -1.4942160617546220e-02  -1.4196413812290762e-02  -1.3465671642607124e-02  -1.2747436028017384e-02  -1.2039097793498646e-02  -1.1337909932981125e-02  -1.0640997130358697e-02  -9.9452642927492160e-03  -9.2473814366757171e-03  -8.5437384544330506e-03  -7.8303184631828213e-03  -7.1027741374511157e-03  -6.3561569634059340e-03  -5.5848566919104586e-03  -4.7826465629906920e-03  -3.9422465647917532e-03  -3.0550680053280533e-03  -2.1113926446402007e-03  -1.0995243506592297e-03  0.0000000000000000e+00  0.0000000000000000e+00  0.0000000000000000e+00  0.0000000000000000e+00  0.0000000000000000e+00  0.0000000000000000e+00  0.0000000000000000e+00  0.0000000000000000e+00  0.0000000000000000e+00  0.0000000000000000e+00  0.0000000000000000e+00  0.0000000000000000e+00  0.0000000000000000e+00  0.0000000000000000e+00  0.0000000000000000e+00  0.0000000000000000e+00  0.0000000000000000e+00  0.0000000000000000e+00  0.0000000000000000e+00  0.0000000000000000e+00  0.0000000000000000e+00  0.0000000000000000e+00  0.0000000000000000e+00  0.0000000000000000e+00  0.0000000000000000e+00  0.0000000000000000e+00  0.0000000000000000e+00  0.0000000000000000e+00  0.0000000000000000e+00  0.0000000000000000e+00  0.0000000000000000e+00  0.0000000000000000e+00  0.0000000000000000e+00  0.0000000000000000e+00  0.0000000000000000e+00  0.0000000000000000e+00  0.0000000000000000e+00  0.0000000000000000e+00  0.0000000000000000e+00  0.0000000000000000e+00  0.0000000000000000e+00  0.0000000000000000e+00  0.0000000000000000e+00  0.0000000000000000e+00  0.0000000000000000e+00  0.0000000000000000e+00  0.0000000000000000e+00  0.0000000000000000e+00  0.0000000000000000e+00  0.0000000000000000e+00  0.0000000000000000e+00  0.0000000000000000e+00  0.0000000000000000e+00  0.0000000000000000e+00  0.0000000000000000e+00  0.0000000000000000e+00  0.0000000000000000e+00  0.0000000000000000e+00  0.0000000000000000e+00  0.0000000000000000e+00  0.0000000000000000e+00  0.0000000000000000e+00  0.0000000000000000e+00  0.0000000000000000e+00  0.0000000000000000e+00  0.0000000000000000e+00  1.0666611521242628e-04  2.0218454618480536e-04  2.8987315226878808e-04  3.7163580715092524e-04  4.4869765645436343e-04  5.2182189217746255e-04  5.9143265896245928e-04  6.5770245141704906e-04  7.2061497095207965e-04  7.8000461046131089e-04  8.3559348461380951e-04  8.8701622794624122e-04  9.3379592791853288e-04  9.7543012462904613e-04  1.0113134336634166e-03  1.0407601615472985e-03  1.0630860112427227e-03  1.0774453795468807e-03  1.0829584891519071e-03  1.0786624228006630e-03  1.0634985339823221e-03  1.0362907296176188e-03  9.9578691069489235e-04  9.4059347092968933e-04  8.6918580264224853e-04  7.7990943984063772e-04  6.7100495864750665e-04  5.4057979111732347e-04  3.8670683718505756e-04  2.0745331076326237e-04  0.0000000000000000e+00  0.0000000000000000e+00  0.0000000000000000e+00  0.0000000000000000e+00  0.0000000000000000e+00  0.0000000000000000e+00  0.0000000000000000e+00  0.0000000000000000e+00  0.0000000000000000e+00  0.0000000000000000e+00  0.0000000000000000e+00  0.0000000000000000e+00  0.0000000000000000e+00  0.0000000000000000e+00  0.0000000000000000e+00  0.0000000000000000e+00  0.0000000000000000e+00  0.0000000000000000e+00  0.0000000000000000e+00  0.0000000000000000e+00  0.0000000000000000e+00  0.0000000000000000e+00  0.0000000000000000e+00  0.0000000000000000e+00  0.0000000000000000e+00  0.0000000000000000e+00  0.0000000000000000e+00  0.0000000000000000e+00  0.0000000000000000e+00  0.0000000000000000e+00  0.0000000000000000e+00  0.0000000000000000e+00  0.0000000000000000e+00  0.0000000000000000e+00  0.0000000000000000e+00  0.0000000000000000e+00  0.0000000000000000e+00  0.0000000000000000e+00  0.0000000000000000e+00  0.0000000000000000e+00  0.0000000000000000e+00  0.0000000000000000e+00  0.0000000000000000e+00  0.0000000000000000e+00  0.0000000000000000e+00  0.0000000000000000e+00  0.0000000000000000e+00  0.0000000000000000e+00  0.0000000000000000e+00  0.0000000000000000e+00  0.0000000000000000e+00  0.0000000000000000e+00  0.0000000000000000e+00  0.0000000000000000e+00  0.0000000000000000e+00  0.0000000000000000e+00  0.0000000000000000e+00  0.0000000000000000e+00  0.0000000000000000e+00  0.0000000000000000e+00  0.0000000000000000e+00  0.0000000000000000e+00  0.0000000000000000e+00  0.0000000000000000e+00  0.0000000000000000e+00  0.0000000000000000e+00  8.9457049253438981e-04  1.6793278015886910e-03  2.3730151365220159e-03  2.9872221934834735e-03  3.5311559818234045e-03  4.0122738274714015e-03  4.4365381586067322e-03  4.8087755787632599e-03  5.1327537247235610e-03  5.4114462700028945e-03  5.6470986633782002e-03  5.8412820077141979e-03  5.9950244310972367e-03  6.1088623865528085e-03  6.1828599823545135e-03  6.2166126824321800e-03  6.2093011410566216e-03  6.1596065303635393e-03  6.0658141804220585e-03  5.9256455838483692e-03  5.7363474089799221e-03  5.4945378831519932e-03  5.1962135894302684e-03  4.8366522035172286e-03  4.4103099217887810e-03  3.9107011072033243e-03  3.3302728625536882e-03  2.6603428034002426e-03  1.8907752674474742e-03  1.0100733703317065e-03  3.0243139648053396e-03  5.8029651580291993e-03  8.3801284735901399e-03  1.0782276626662245e-02  1.3030973037275280e-02  1.5145085270149497e-02  1.7141566723641199e-02  1.9034901187078838e-02  2.0837886784644877e-02  2.2561828336088868e-02  2.4217017904311234e-02  2.5812520671045353e-02  2.7356696386110550e-02  2.8856926233160766e-02  3.0320183404347698e-02  3.1752526937757007e-02  3.3159939813317697e-02  3.4547752296236758e-02  3.5921082478225001e-02  3.7284709418546058e-02  3.8643061938580248e-02  4.0000491731449553e-02  4.1361178174979654e-02  4.2728983267535832e-02  4.4107777879228011e-02  4.5501382624852406e-02  4.6913434083560419e-02  4.8347564314497105e-02  4.9807391829861380e-02  5.1296501479664545e-02  5.2818460737933830e-02  5.4376869130357310e-02  5.5975349322368688e-02  5.7617565834174551e-02  5.9307251739879233e-02  6.1048165646820148e-02  6.2844167384011398e-02  6.4699265174002110e-02  6.6617435298431324e-02  6.8602896951522774e-02  7.0659909234302237e-02  7.2792905569487934e-02  7.5006455145716300e-02  7.7305269727712608e-02  7.9694254299712469e-02  8.2178453729488676e-02  8.4763154220490147e-02  8.7453786280214121e-02  9.0256050558483306e-02  9.3175842809114201e-02  9.6219313163861328e-02  9.9392841499795451e-02  1.0270311028382047e-01  1.0615705370763225e-01  1.0976192489658304e-01  1.1352527591395045e-01  1.1745499470092421e-01  1.2155930704433519e-01  1.2584680652793204e-01  1.3032646603528039e-01  1.3500765875242046e-01  1.3990017499222740e-01  1.4501425011014366e-01  1.5036057464230615e-01  1.5595032572931355e-01  1.6179518981554342e-01  1.6790738032785552e-01  1.7429967481259515e-01  1.8098542692319319e-01  1.8797861385243875e-01  1.9529384058285079e-01  2.0294639274072210e-01  2.1095226062026118e-01  2.1932816197989316e-01  2.2809159696859568e-01  2.3726087648593119e-01  2.4685514565292480e-01  2.5689445052034371e-01  2.6739976047849251e-01  2.7839301504506447e-01  2.8989717686045852e-01  3.0193627376646959e-01  3.1453545116022386e-01  3.2772102499678862e-01  3.4152053278072936e-01  3.5596279654362156e-01  3.7107798077300846e-01  3.8689765646364227e-01  4.0345486003602216e-01  4.2078417863523965e-01  4.3892179947705673e-01  4.5790560918874751e-01  4.7777526312661162e-01  4.9857225403091110e-01  5.2034002220233522e-01  5.4312403835046885e-01  5.6697188603236304e-01  5.9193338362391656e-01  6.1806066868263687e-01  6.4540831686128708e-01  6.7403345551627092e-01  7.0399589061718126e-01  7.3535820031439370e-01  7.6818591181907359e-01  8.0254760797457703e-01  8.3851510251753136e-01  8.7616353631782318e-01  9.1557160242614100e-01  9.5682167950266339e-01  -6.6058808991508275e-02  1.0061785989406942e-01  -3.7491649815642965e-02  1.5314879857272110e-01  -1.1215567717658814e-01  6.9535575747964720e-02  -2.4355192432408839e-02  -1.7388517500168718e-01  2.1579610013916484e-01  2.9504966979857561e-01  -2.4825580587411036e-01  -1.6894445489189450e-02  5.3667597584626546e-02  3.9544912874216842e-01  -3.4051083250620784e-01  -1.2409543074577100e-02  5.0868648774358605e-01  -4.8820302459539333e-02  -4.4182634665766418e-01  1.2367010971445055e-01  -8.5621985383674146e-02  8.3475337217476769e-02  4.3433619422950209e-02  -2.2459338684266594e-02  -3.0284826368199902e-02  -6.7923591319328015e-04  -5.5333141176697531e-01  -1.3987637555973650e-01  1.9353070350258655e-01  -2.4009036647602877e-01  4.1261603456608154e-01  -4.5285106790047586e-01  -8.9073197562308231e-03  3.6623839908656690e-02  9.6505195492416296e-01  -9.5849033581350274e-01  6.3173479848060465e-01  -2.0325156982335377e-02  -6.5660085752410702e-01  2.5162226267476867e-01  1.7775574110318221e-01  -2.0880180238377963e-01  6.0229380981947127e-02  2.5283237600693667e-03  5.8165394778423085e-01  3.1064683207530430e-02  -6.3033652748784408e-01  -7.5995785765004171e-04  4.2413447768546554e-03  8.6168595385368435e-04  5.5768265080470471e-04  8.0687417870291194e-05  9.1006486903246874e-04  2.1963003895312519e-04  4.6085426502145239e-03  8.3440529977261188e-04  9.6457359296902601e-01  -9.6300144883990224e-01  2.3392822681858995e-04  2.3582077376685175e-04  9.1884952099696520e-04  1.0870007080578097e-03  9.6189252804133074e-01  -6.0004141198765956e-03  -9.6446952245287398e-01  1.6193239313937711e-02  7.5099547847094383e-01  -1.4576861723854513e-02  -7.5001979421957143e-01  4.4898205972665728e-01  -4.2772829656974654e-02  3.3460096141048135e-01  -3.8681838609585617e-01  -5.5743885037345585e-02  -2.8328570879860593e-01  1.3745051317625198e-01  -9.7990750316885755e-02  -7.5334614701147287e-02  1.1164651063554390e-01  9.1927419230989529e-02  7.6299735014045328e-02  2.1723509213876002e-02  4.7643146175934500e-02  2.6756947731369312e-02  7.6133499903919644e-01  -9.6354168839071663e-01  5.6216436219671843e-03  1.0586892275818273e-03  5.2720070436259340e-03  7.5223462095880679e-04  -7.6087104113936610e-01  9.6233445695888797e-01  1.7705708251970068e-04  7.8210401177801708e-04  8.1669009251199748e-05  7.3237022699777538e-04  -8.3511493105481503e-04  2.2338000155129882e-03  9.6158352385894164e-01  -9.6516165945511445e-01  3.3586886246246632e-04  2.7292459524085968e-03  3.0219065865762403e-03  6.1209463356838264e-04  -3.5112651611895365e-03  9.5240369206695281e-03  6.2518829702482026e-05  8.4102145295593107e-04  2.5631006627376937e-03  8.5733945498693986e-01  -8.5782362906168086e-01  2.1771703256630724e-04  1.0375398133428623e-03  -7.4813070636949247e-03  -1.0308052222016964e-02  6.8840009420311898e-01  5.5623802551427726e-01  -1.8545471625316019e-02  -2.2112920658939834e-02  -6.0177587273276167e-01  -2.6494390960652963e-02  -3.2966165464600690e-02  3.6255143928083472e-01  -4.8236455092949931e-01  2.7236424719722563e-01  2.3184354676904473e-01  1.9256296586189475e-01  -3.0967061552708408e-01  1.6462594765567970e-01  -6.0262462326859154e-02  -2.2606374071214724e-01  -1.9030456117990008e-01  -1.5166237528086959e-01  -1.2240793273629239e-01  4.9609471814090644e-05  7.5185660577444652e-04  -1.1119690718048299e-01  6.4078006505725205e-02  -9.6610766619077748e-01  2.3588333914263647e-03  9.6643378929894475e-01  2.8158207253065171e-01  -3.2598075929771897e-01  4.9985579543411235e-01  -5.4515635224578574e-01  6.7612674430290798e-01  -9.5355320320383585e-01  9.6495423389710022e-01  -9.6085444224267980e-01  -8.4789209015493372e-01  8.4709443123554462e-01  9.6436058516226675e-01  6.3902982120569551e-02  5.6805394041625379e-02  2.9760793189978891e-05  7.5989167459778449e-04  5.0563180721902537e-02  2.4078015052784716e-03  3.9329190567721516e-02  3.3878118749219560e-02  2.5089526378291322e-06  7.1945647472468842e-04  2.4022916781561788e-03  -2.7368144511657658e-05  -5.5649933236012667e-05  6.6677110536626923e-04  6.6390088812284202e-04  1.7424038099849565e-03  1.4678070677181219e-03  6.0242911731806089e-03  8.6123756465929723e-04  1.0839317101055896e-03  5.7751817150076346e-03  6.0629630080682433e-03  9.6024613447044313e-04  1.0725484479694686e-03  6.1972261391753918e-03  6.2178345360361835e-03  1.0282268110109270e-03  2.0013273773565843e-04  8.3688389925921599e-04  9.0727514248529922e-05  7.6992609180715594e-04  -8.4485842455338115e-04  2.4228119063607347e-03  9.6388097577034826e-01  -9.6044697864711726e-01  9.3776663086387635e-01  -9.3775730676780622e-01  7.2851447497159774e-04  1.3962799977814927e-03  1.4360775464096645e-03  2.0921233065523581e-03  2.0920950762776521e-03  2.8690448106823128e-03  2.8887712495935321e-03  3.7572360149544124e-03  3.8981215180429428e-03  5.0397620063314594e-03  4.9935780366729288e-03  3.5961163504101127e-03  2.1059544626968727e-03  3.8045676530086611e-03  5.5250200666771936e-03  6.7509465136123903e-03  6.0221251657696269e-03  7.9121514998489045e-03  7.4764016188479500e-03  9.0448720106936897e-03  8.5464718369830852e-03  1.0099131561281607e-02  9.4894316379684571e-03  1.0991222819198579e-02  1.0064812024891239e-02  1.1815499504010995e-02  1.0964021028278641e-02  1.2611632731539025e-02  1.1555204312933005e-02  1.3295672935765918e-02  1.2033322881248573e-02  1.3866202599424294e-02  1.2426594004250453e-02  1.4371320418707827e-02  1.2713964956717737e-02  1.4783031906707109e-02  1.2865890413122891e-02  1.5119837700607484e-02  1.2981348820309662e-02  1.5357431380310200e-02  1.2964611474940938e-02  1.5552648381461445e-02  1.2892263018582676e-02  1.5643391523003546e-02  