<?xml version="1.0"?>
<VTKFile type="UnstructuredGrid"  version="0.1"  >
<UnstructuredGrid>
<Piece  NumberOfPoints="9764" NumberOfCells="18766">
<Points>
<DataArray  type="Float64"  NumberOfComponents="3"  format="ascii">0 0 0  450 0 0  450 225 0  0 225 0  224 0 0  226 0 0  225 1 0  226 1 0  230 0.5 0  234 0 0  236 0 0  235 1 0  236 1 0  240 0.5 0  244 0 0  246 0 0  245 1 0  246 1 0  450 9.782608695661354 0  450 19.56521739132493 0  450 29.34782608698428 0  450 39.13043478263055 0  450 48.91304347827662 0  450 58.69565217392267 0  450 68.47826086956874 0  450 78.26086956521479 0  450 88.04347826086087 0  450 97.82608695650693 0  450 107.608695652153 0  450 117.3913043478299 0  450 127.1739130435357 0  450 136.9565217391855 0  450 146.7391304348315 0  450 156.5217391304776 0  450 166.3043478261236 0  450 176.0869565217697 0  450 185.8695652174157 0  450 195.6521739130618 0  450 205.4347826087078 0  450 215.2173913043539 0  440.217391304352 225 0  430.4347826087039 225 0  420.6521739130558 225 0  410.8695652174077 225 0  401.0869565217596 225 0  391.3043478261116 225 0  381.5217391304635 225 0  371.7391304348154 225 0  361.9565217391673 225 0  352.1739130435193 225 0  342.3913043478713 225 0  332.6086956522231 225 0  322.8260869565751 225 0  313.043478260927 225 0  303.2608695652789 225 0  293.4782608696308 225 0  283.6956521739828 225 0  273.9130434783347 225 0  264.1304347826866 225 0  254.3478260870386 225 0  244.5652173913905 225 0  234.7826086957424 225 0  225.0000000000888 225 0  215.2173913043845 225 0  205.4347826086747 225 0  195.6521739129687 225 0  185.8695652173134 225 0  176.0869565216654 225 0  166.3043478260173 225 0  156.5217391303692 225 0  146.7391304347212 225 0  136.956521739073 225 0  127.173913043425 225 0  117.3913043477769 225 0  107.6086956521288 225 0  97.82608695648076 225 0  88.04347826083261 225 0  78.26086956518463 225 0  68.47826086953654 225 0  58.69565217388845 225 0  48.91304347824035 225 0  39.13043478259226 225 0  29.34782608694422 225 0  19.56521739129619 225 0  9.782608695648094 225 0  0 215.2173913043519 0  0 205.4347826087039 0  0 195.6521739130558 0  0 185.8695652174077 0  0 176.0869565217596 0  0 166.3043478261116 0  0 156.5217391304635 0  0 146.7391304348154 0  0 136.9565217391674 0  0 127.1739130435193 0  0 117.3913043478712 0  0 107.6086956521923 0  0 97.82608695648437 0  0 88.0434782608327 0  0 78.26086956518458 0  0 68.47826086953651 0  0 58.69565217388845 0  0 48.91304347824038 0  0 39.13043478259232 0  0 29.34782608694422 0  0 19.56521739129613 0  0 9.782608695648094 0  224.0020089923861 0.063355731562034 0  224.0078669237896 0.1251876954392177 0  224.0173189540956 0.1853050512541301 0  224.0301104026608 0.243545003999721 0  224.0459888465302 0.2997711111084815 0  224.0647058707711 0.3538712927462628 0  224.0860185776573 0.4057560345977113 0  224.1096908286717 0.4553565410189064 0  224.1354942695903 0.5026229621582694 0  224.1632091334853 0.5475226440227238 0  224.1926249250355 0.5900385481695689 0  224.2235407638306 0.6301674813628185 0  224.2557657849086 0.6679187323973781 0  224.2891195163637 0.7033128308121627 0  224.3234314721495 0.736379675929636 0  224.3585416405058 0.7671578540528868 0  224.3943001347868 0.7956932029876407 0  224.4305670884679 0.8220378089017952 0  224.4672124255662 0.8462490180372396 0  224.5041156045838 0.8683885457459335 0  224.5411652540955 0.8885216237947197 0  224.5782590182344 0.9067163527252478 0  224.6153028595457 0.9230428538948069 0  224.6522110523273 0.9375728493705031 0  224.6889055603574 0.9503790031474065 0  224.72531568381 0.961534464509318 0  224.7613777251139 0.9711124599798758 0  224.7970345748618 0.9791859048201496 0  224.8322353596756 0.9858270768531486 0  224.8669348413503 0.9911072916458271 0  224.9010933583037 0.9950967170221953 0  224.9346762707545 0.997864124216049 0  224.9676536620218 0.9994767202988784 0  225.0323463381051 0.99947672029477 0  225.0653237301236 0.9978641241585631 0  225.0989066431223 0.9950967168804671 0  225.1330651602428 0.9911072914319439 0  225.1677646419726 0.9858270765726634 0  225.2029654269951 0.979185904435247 0  225.2386222604036 0.9711124635385281 0  225.2746843192525 0.9615344636344383 0  225.3110944429274 0.9503790020721721 0  225.3477889498758 0.9375728485532481 0  225.3846971416895 0.9230428533800188 0  225.4217409837351 0.9067163518091972 0  225.4588347483695 0.888521622521743 0  225.4958843983252 0.8683885440847672 0  225.5327875773925 0.846249016174439 0  225.5694329140487 0.8220378071585059 0  225.6056998679296 0.7956932009198679 0  225.641458362852 0.7671578512452597 0  225.6765685310523 0.736379672987914 0  225.7108804867128 0.7033128277025616 0  225.7442342180933 0.6679187290524371 0  225.7764592391041 0.6301674777468723 0  225.8073750777669 0.5900385443348745 0  225.8367908685816 0.5475226408638091 0  225.8645057322388 0.502622959012232 0  225.8903091726418 0.4553565384507763 0  225.9139814234573 0.4057560320869432 0  225.935294130113 0.3538712904094632 0  225.9540111540606 0.2997711092283469 0  225.9698895977127 0.2435450025123902 0  225.9826810461417 0.1853050499957777 0  225.9921330763121 0.1251876946332835 0  225.9979910076399 0.06335573115285377 0  9.724657309557664 0 0  19.02990561489478 0 0  27.93382974437208 0 0  36.4537404975454 0 0  44.60620016225933 0 0  52.40705568240647 0 0  59.87147154317288 0 0  67.01395653385165 0 0  73.84839875777189 0 0  80.38807968606275 0 0  86.64571284056197 0 0  92.63346328245085 0 0  98.36297046378698 0 0  103.8453721348713 0 0  109.0913252627834 0 0  114.1110282135623 0 0  118.914238357087 0 0  123.5102929000238 0 0  127.9081253730336 0 0  132.1162857391113 0 0  136.1429549088198 0 0  139.9959585537756 0 0  143.6827874356201 0 0  147.2106089691988 0 0  150.5862812955824 0 0  153.8163648770172 0 0  156.9071395455719 0 0  159.8646136931983 0 0  162.6945358741549 0 0  165.4024075759797 0 0  167.9934921069113 0 0  170.4728273952023 0 0  172.8452319994138 0 0  175.1153183143408 0 0  177.2874990632585 0 0  179.3659966326073 0 0  181.3548516892633 0 0  183.2579303976732 0 0  185.0789313485823 0 0  186.8213956698771 0 0  188.4887097667209 0 0  190.0841148690362 0 0  191.6107125473505 0 0  193.0714699966116 0 0  194.4692272649741 0 0  195.8067009978392 0 0  197.0864915810537 0 0  198.3110864738335 0 0  199.482866160831 0 0  200.6041087807559 0 0  201.6769937811462 0 0  202.7036067754679 0 0  203.6859433789877 0 0  204.6259132873555 0 0  205.5253433791829 0 0  206.3859826682087 0 0  207.2095035890445 0 0  207.997507257115 0 0  208.7515253637376 0 0  209.4730237734672 0 0  210.1634049499469 0 0  210.8240109907306 0 0  211.4561260143591 0 0  212.060978785667 0 0  212.6397450141027 0 0  213.1935499460044 0 0  213.7234700471982 0 0  214.2305354641678 0 0  214.7157318316905 0 0  215.1800023503719 0 0  215.6242495509076 0 0  216.0493371210115 0 0  216.4560911509623 0 0  216.845302440869 0 0  217.21772760454 0 0  217.5740906239334 0 0  217.9150841433838 0 0  218.241371125184 0 0  218.5535858412163 0 0  218.8523351331747 0 0  219.1381997902312 0 0  219.4117355022302 0 0  219.6734739944899 0 0  219.9239241281105 0 0  220.1635726506841 0 0  220.3928854518087 0 0  220.61230834362 0 0  220.8222678864888 0 0  221.0231721146276 0 0  221.2154116317471 0 0  221.3993601212488 0 0  221.5753751763791 0 0  221.7437989502984 0 0  221.9049588503808 0 0  222.0591681367364 0 0  222.2067265977104 0 0  222.3479210690713 0 0  222.4830260263524 0 0  222.6123041189778 0 0  222.7360065812347 0 0  222.8543739478548 0 0  222.9676363098526 0 0  223.0760138277523 0 0  223.1797171723988 0 0  223.2789479251624 0 0  223.3738989996738 0 0  223.4647549720281 0 0  223.5516924491118 0 0  223.6348804347739 0 0  223.7144806430749 0 0  223.7906478148444 0 0  223.8635299801972 0 0  223.9332688577469 0 0  234.0020089923861 0.063355731562034 0  234.0078669237896 0.1251876954392177 0  234.0173189540956 0.1853050512541301 0  234.0301104026608 0.243545003999721 0  234.0459888465302 0.2997711111084815 0  234.0647058707711 0.3538712927462628 0  234.0860185776573 0.4057560345977113 0  234.1096908286717 0.4553565410189064 0  234.1354942695903 0.5026229621582694 0  234.1632091334853 0.5475226440227238 0  234.1926249250355 0.5900385481695689 0  234.2235407638306 0.6301674813628185 0  234.2557657849086 0.6679187323973781 0  234.2891195163637 0.7033128308121627 0  234.3234314721495 0.736379675929636 0  234.3585416405058 0.7671578540528868 0  234.3943001347868 0.7956932029876407 0  234.4305670884679 0.8220378089017952 0  234.4672124255662 0.8462490180372396 0  234.5041156045838 0.8683885457459335 0  234.5411652540955 0.8885216237947197 0  234.5782590182344 0.9067163527252478 0  234.6153028595457 0.9230428538948069 0  234.6522110523273 0.9375728493705031 0  234.6889055603574 0.9503790031474065 0  234.72531568381 0.961534464509318 0  234.7613777251139 0.9711124599798758 0  234.7970345748618 0.9791859048201496 0  234.8322353596756 0.9858270768531486 0  234.8669348413503 0.9911072916458271 0  234.9010933583037 0.9950967170221953 0  234.9346762707545 0.997864124216049 0  234.9676536620218 0.9994767202988784 0  235.0323463381051 0.99947672029477 0  235.0653237301236 0.9978641241585631 0  235.0989066431223 0.9950967168804671 0  235.1330651602428 0.9911072914319439 0  235.1677646419726 0.9858270765726634 0  235.2029654269951 0.979185904435247 0  235.2386222604036 0.9711124635385281 0  235.2746843192525 0.9615344636344383 0  235.3110944429274 0.9503790020721721 0  235.3477889498758 0.9375728485532481 0  235.3846971416895 0.9230428533800188 0  235.4217409837351 0.9067163518091972 0  235.4588347483695 0.888521622521743 0  235.4958843983252 0.8683885440847672 0  235.5327875773925 0.846249016174439 0  235.5694329140487 0.8220378071585059 0  235.6056998679296 0.7956932009198679 0  235.641458362852 0.7671578512452597 0  235.6765685310523 0.736379672987914 0  235.7108804867128 0.7033128277025616 0  235.7442342180933 0.6679187290524371 0  235.7764592391041 0.6301674777468723 0  235.8073750777669 0.5900385443348745 0 
[...]
<PointData  Scalars="foodini"> 
<DataArray  type="Float64"  Name="foodini"  format="ascii">-1.0000000000000000e+00  1.0000000000000000e+00  9.9999999999999989e-01  -9.9999999999999989e-01  0.0000000000000000e+00  0.0000000000000000e+00  0.0000000000000000e+00  2.0105902507900380e-04  1.0870404003010474e-02  0.0000000000000000e+00  0.0000000000000000e+00  0.0000000000000000e+00  1.3033563714247401e-02  4.2970545600542275e-02  0.0000000000000000e+00  0.0000000000000000e+00  0.0000000000000000e+00  2.8195001669167417e-02  1.0000000000000000e+00  1.0000000000000000e+00  1.0000000000000000e+00  9.9999999999999989e-01  1.0000000000000000e+00  1.0000000000000000e+00  9.9999999999999989e-01  9.9999999999999989e-01  9.9999999999999989e-01  1.0000000000000000e+00  9.9999999999999989e-01  1.0000000000000002e+00  1.0000000000000000e+00  1.0000000000000002e+00  1.0000000000000000e+00  9.9999999999999989e-01  1.0000000000000000e+00  1.0000000000000000e+00  1.0000000000000000e+00  9.9999999999999989e-01  1.0000000000000000e+00  1.0000000000000000e+00  9.5647992915473179e-01  9.1296000206926053e-01  8.6944036203786368e-01  8.2592115866065707e-01  7.8240254571108070e-01  7.3888468425140230e-01  6.9536774380273780e-01  6.5185190241471147e-01  6.0833734763808800e-01  5.6482427591736295e-01  5.2131289090999555e-01  4.7780340339501187e-01  4.3429602647350368e-01  3.9079097230431309e-01  3.4728844697185396e-01  3.0378865193650817e-01  2.6029176458558051e-01  2.1679794810787095e-01  1.7330733383672245e-01  1.2982002358612693e-01  8.6336082774761652e-02  4.2855538030152018e-02  -6.2162283863930455e-04  -4.4095451256343746e-02  -8.7566034981819155e-02  -1.3103349444319057e-01  -1.7449797990352781e-01  -2.1795965867970277e-01  -2.6141872276947298e-01  -3.0487536834764939e-01  -3.4832980073061787e-01  -3.9178222374863181e-01  -4.3523283827089204e-01  -4.7868183874485687e-01  -5.2212940951813480e-01  -5.6557572466573081e-01  -6.0902094615199875e-01  -6.5246522381920113e-01  -6.9590869611137585e-01  -7.3935149071722561e-01  -7.8279372299014760e-01  -8.2623550192279105e-01  -8.6967692725469359e-01  -9.1311809353800566e-01  -9.5655908887026797e-01  -1.0000000000000002e+00  -1.0000000000000002e+00  -1.0000000000000000e+00  -1.0000000000000000e+00  -1.0000000000000000e+00  -1.0000000000000000e+00  -1.0000000000000000e+00  -1.0000000000000000e+00  -9.9999999999999989e-01  -9.9999999999999989e-01  -1.0000000000000000e+00  -9.9999999999999989e-01  -9.9999999999999989e-01  -1.0000000000000000e+00  -1.0000000000000002e+00  -1.0000000000000000e+00  -1.0000000000000000e+00  -1.0000000000000002e+00  -9.9999999999999989e-01  -9.9999999999999989e-01  -1.0000000000000000e+00  -9.9999999999999989e-01  0.0000000000000000e+00  0.0000000000000000e+00  0.0000000000000000e+00  0.0000000000000000e+00  0.0000000000000000e+00  0.0000000000000000e+00  0.0000000000000000e+00  0.0000000000000000e+00  0.0000000000000000e+00  0.0000000000000000e+00  0.0000000000000000e+00  0.0000000000000000e+00  0.0000000000000000e+00  0.0000000000000000e+00  0.0000000000000000e+00  0.0000000000000000e+00  0.0000000000000000e+00  0.0000000000000000e+00  0.0000000000000000e+00  0.0000000000000000e+00  0.0000000000000000e+00  0.0000000000000000e+00  0.0000000000000000e+00  0.0000000000000000e+00  0.0000000000000000e+00  0.0000000000000000e+00  0.0000000000000000e+00  0.0000000000000000e+00  0.0000000000000000e+00  0.0000000000000000e+00  0.0000000000000000e+00  0.0000000000000000e+00  0.0000000000000000e+00  0.0000000000000000e+00  0.0000000000000000e+00  0.0000000000000000e+00  0.0000000000000000e+00  0.0000000000000000e+00  0.0000000000000000e+00  0.0000000000000000e+00  0.0000000000000000e+00  0.0000000000000000e+00  0.0000000000000000e+00  0.0000000000000000e+00  0.0000000000000000e+00  0.0000000000000000e+00  0.0000000000000000e+00  0.0000000000000000e+00  0.0000000000000000e+00  0.0000000000000000e+00  0.0000000000000000e+00  0.0000000000000000e+00  0.0000000000000000e+00  0.0000000000000000e+00  0.0000000000000000e+00  0.0000000000000000e+00  0.0000000000000000e+00  0.0000000000000000e+00  0.0000000000000000e+00  0.0000000000000000e+00  0.0000000000000000e+00  0.0000000000000000e+00  0.0000000000000000e+00  0.0000000000000000e+00  0.0000000000000000e+00  0.0000000000000000e+00  -9.5682895041594307e-01  -9.1552006860961788e-01  -8.7599327917107961e-01  -8.3817190610379688e-01  -8.0198256074514962e-01  -7.6735500745853380e-01  -7.3422202466303321e-01  -7.0251928365208993e-01  -6.7218520249786740e-01  -6.4316088587377052e-01  -6.1538994459464014e-01  -5.8881842659085526e-01  -5.6339470290069882e-01  -5.3906936897248781e-01  -5.1579514977608676e-01  -4.9352680229382978e-01  -4.7222103688720257e-01  -4.5183642996383444e-01  -4.3233334015386576e-01  -4.1367383100752353e-01  -3.9582159734226741e-01  -3.7874191594521822e-01  -3.6240153450553825e-01  -3.4676864644999378e-01  -3.3181280549150899e-01  -3.1750488991360809e-01  -3.0381701753312085e-01  -2.9072250991960980e-01  -2.7819583715234192e-01  -2.6621256394431542e-01  -2.5474930841013838e-01  -2.4378368790669647e-01  -2.3329428771421634e-01  -2.2326060495423200e-01  -2.1366302042308982e-01  -2.0448275560432941e-01  -1.9570183542284983e-01  -1.8730305490335444e-01  -1.7926994848940353e-01  -1.7158674636585680e-01  -1.6423836083110280e-01  -1.5721034409389004e-01  -1.5048886513860626e-01  -1.4406068359732341e-01  -1.3791311997445729e-01  -1.3203403721367571e-01  -1.2641181184290565e-01  -1.2103531348895050e-01  -1.1589388658183343e-01  -1.1097732114556193e-01  -1.0627584322855643e-01  -1.0178008980929837e-01  -9.7481093335967314e-02  -9.3370262737221016e-02  -8.9439369618319789e-02  -8.5680527815715127e-02  -8.2086185244043403e-02  -7.8649103053758038e-02  -7.5362345117509194e-02  -7.2219263422348121e-02  -6.9213486798178500e-02  -6.6338907395440780e-02  -6.3589669831434881e-02  -6.0960159938216567e-02  -5.8444993814467043e-02  -5.6039006670433045e-02  -5.3737245039061042e-02  -5.1534955414786261e-02  -4.9427575742805895e-02  -4.7410726494891024e-02  -4.5480201792743841e-02  -4.3631960837265192e-02  -4.1862122337590145e-02  -4.0166952985254495e-02  -3.8542860768818230e-02  -3.6986390085780051e-02  -3.5494210757068281e-02  -3.4063109755840544e-02  -3.2689996695970398e-02  -3.1371876884791580e-02  -3.0105859165796431e-02  -2.8889139870908784e-02  -2.7718998802387880e-02  -2.6592802081401780e-02  -2.5507975708815495e-02  -2.4462014075971188e-02  -2.3452458442632010e-02  -2.2476878533246477e-02  -2.1532937386494165e-02  -2.0618257193766601e-02  -1.9730506760030457e-02  -1.8867367982414868e-02  -1.8026504322456935e-02  -1.7205549827735131e-02  -1.6402121160102517e-02  -1.5613760853265872e-02  -1.4837946415775294e-02  -1.4072080408249116e-02  -1.3313412053248295e-02  -1.2559056152700789e-02  -1.1805966504776428e-02  -1.1050812760961126e-02  -1.0290047151068234e-02  -9.5197688959154439e-03  -8.7356889997057992e-03  -7.9329976356007498e-03  -7.1064038271065055e-03  -6.2498246458735588e-03  -5.3562907791600894e-03  -4.4179936331103110e-03  -3.4256352903705772e-03  -2.3683395484702719e-03  -1.2336510034006614e-03  0.0000000000000000e+00  0.0000000000000000e+00  0.0000000000000000e+00  0.0000000000000000e+00  0.0000000000000000e+00  0.0000000000000000e+00  0.0000000000000000e+00  0.0000000000000000e+00  0.0000000000000000e+00  0.0000000000000000e+00  0.0000000000000000e+00  0.0000000000000000e+00  0.0000000000000000e+00  0.0000000000000000e+00  0.0000000000000000e+00  0.0000000000000000e+00  0.0000000000000000e+00  0.0000000000000000e+00  0.0000000000000000e+00  0.0000000000000000e+00  0.0000000000000000e+00  0.0000000000000000e+00  0.0000000000000000e+00  0.0000000000000000e+00  0.0000000000000000e+00  0.0000000000000000e+00  0.0000000000000000e+00  0.0000000000000000e+00  0.0000000000000000e+00  0.0000000000000000e+00  0.0000000000000000e+00  0.0000000000000000e+00  0.0000000000000000e+00  0.0000000000000000e+00  0.0000000000000000e+00  0.0000000000000000e+00  0.0000000000000000e+00  0.0000000000000000e+00  0.0000000000000000e+00  0.0000000000000000e+00  0.0000000000000000e+00  0.0000000000000000e+00  0.0000000000000000e+00  0.0000000000000000e+00  0.0000000000000000e+00  0.0000000000000000e+00  0.0000000000000000e+00  0.0000000000000000e+00  0.0000000000000000e+00  0.0000000000000000e+00  0.0000000000000000e+00  0.0000000000000000e+00  0.0000000000000000e+00  0.0000000000000000e+00  0.0000000000000000e+00  0.0000000000000000e+00  0.0000000000000000e+00  0.0000000000000000e+00  0.0000000000000000e+00  0.0000000000000000e+00  0.0000000000000000e+00  0.0000000000000000e+00  0.0000000000000000e+00  0.0000000000000000e+00  0.0000000000000000e+00  0.0000000000000000e+00  2.1840549006136025e-04  4.1526468914779687e-04  5.9837284790237864e-04  7.7247561187449064e-04  9.4081324682263577e-04  1.1056925177846256e-03  1.2687257127889720e-03  1.4310558602038876e-03  1.5934788820860465e-03  1.7565431682489254e-03  1.9206205901052616e-03  2.0859496634416624e-03  2.2526763959576303e-03  2.4208769542599312e-03  2.5905785260801838e-03  2.7617707242315356e-03  2.9344162152332457e-03  3.1084595642588051e-03  3.2838321524773658e-03  3.4604550985342744e-03  3.6382441732829931e-03  3.8171122493471858e-03  3.9969679079855311e-03  4.1777214352652203e-03  4.3592812666463634e-03  4.5415578545838038e-03  4.7244614512170413e-03  4.9079055864431932e-03  5.0918023299382853e-03  5.2760695870471639e-03  5.4606239536863273e-03  5.6453838680632397e-03  5.8302712255592967e-03  6.0152065888071293e-03  6.2001157036719124e-03  6.3849222640428374e-03  6.5695522097115279e-03  6.7539324511103147e-03  6.9379916824065507e-03  7.1216577336040907e-03  7.3048598784823272e-03  7.4875280311524342e-03  7.6695912398865706e-03  7.8509796804173224e-03  8.0316223625787175e-03  8.2114492325682121e-03  8.3903884566965022e-03  8.5683683007061751e-03  8.7453174938799758e-03  8.9211604525848611e-03  9.0958244703123886e-03  9.2692324426145219e-03  9.4413068732473234e-03  9.6119700487048935e-03  9.7811376941773793e-03  9.9487302957432366e-03  1.0114659994567938e-02  1.0278839702851820e-02  1.0441175020578817e-02  1.0601576728246522e-02  1.0759943660263590e-02  1.0916177693913086e-02  1.1070171182471023e-02  1.1221818572544194e-02  1.1371003090148031e-02  1.1517609440871131e-02  1.1661510440856388e-02  1.1802579505318116e-02  1.1940678710577088e-02  1.2075666136961526e-02  1.2207390676542822e-02  1.2335695440251758e-02  1.2460413855552561e-02  1.2581369350354504e-02  1.2698381031588810e-02  1.2811248823525596e-02  1.2919768413625535e-02  1.3023721246437268e-02  1.3122872401001618e-02  1.3216972887342641e-02  1.3305761840761153e-02  1.3388954819233714e-02  1.3466255508802488e-02  1.3537338477521211e-02  1.3601867891635200e-02  1.3659471257928664e-02  1.3709755307058299e-02  1.3752296291412348e-02  1.3786638426285028e-02  1.3812289101943971e-02  1.3828718896472627e-02  1.3835352060195111e-02  1.3831565364903263e-02  1.3816687892808547e-02  1.3789984005767244e-02  1.3750649441730128e-02  1.3697815069094864e-02  1.3630523345434378e-02  1.3547733419394326e-02  1.3448295652440576e-02  1.3330927618827499e-02  1.3194256392619660e-02  1.3036717233952584e-02  1.2856606152054417e-02  1.2652003371076788e-02  1.2420785221722623e-02  1.2160571438733322e-02  1.1868667693034610e-02  1.1542080262945564e-02  1.1177356916108289e-02  1.0770686688809133e-02  1.0317558494655047e-02  9.8130084056657907e-03  9.2511608692862988e-03  8.6253303612738984e-03  7.9276049894577982e-03  7.1489730986160314e-03  6.2786299925731729e-03  5.3039243717947120e-03  4.2095604790674222e-03  2.9777135857587639e-03  1.5861145504498506e-03  0.0000000000000000e+00  0.0000000000000000e+00  0.0000000000000000e+00  0.0000000000000000e+00  0.0000000000000000e+00  0.0000000000000000e+00  0.0000000000000000e+00  0.0000000000000000e+00  0.0000000000000000e+00  0.0000000000000000e+00  0.0000000000000000e+00  0.0000000000000000e+00  0.0000000000000000e+00  0.0000000000000000e+00  0.0000000000000000e+00  0.0000000000000000e+00  0.0000000000000000e+00  0.0000000000000000e+00  0.0000000000000000e+00  0.0000000000000000e+00  0.0000000000000000e+00  0.0000000000000000e+00  0.0000000000000000e+00  0.0000000000000000e+00  0.0000000000000000e+00  0.0000000000000000e+00  0.0000000000000000e+00  0.0000000000000000e+00  0.0000000000000000e+00  0.0000000000000000e+00  0.0000000000000000e+00  0.0000000000000000e+00  0.0000000000000000e+00  0.0000000000000000e+00  0.0000000000000000e+00  0.0000000000000000e+00  0.0000000000000000e+00  0.0000000000000000e+00  0.0000000000000000e+00  0.0000000000000000e+00  0.0000000000000000e+00  0.0000000000000000e+00  0.0000000000000000e+00  0.0000000000000000e+00  0.0000000000000000e+00  0.0000000000000000e+00  0.0000000000000000e+00  0.0000000000000000e+00  0.0000000000000000e+00  0.0000000000000000e+00  0.0000000000000000e+00  0.0000000000000000e+00  0.0000000000000000e+00  0.0000000000000000e+00  0.0000000000000000e+00  0.0000000000000000e+00  0.0000000000000000e+00  0.0000000000000000e+00  0.0000000000000000e+00  0.0000000000000000e+00  0.0000000000000000e+00  0.0000000000000000e+00  0.0000000000000000e+00  0.0000000000000000e+00  0.0000000000000000e+00  0.0000000000000000e+00  2.8779294551864332e-03  5.4153671807006549e-03  7.6833479704840170e-03  9.7254192402844598e-03  1.1576587236079305e-02  1.3264743107761231e-02  1.4812819385996432e-02  1.6239336597716533e-02  1.7559859408080934e-02  1.8787257102150817e-02  1.9932451517510722e-02  2.1004656068727669e-02  2.2011748146772418e-02  2.2960511690194009e-02  2.3856771581114013e-02  2.4705556251786828e-02  2.5511242730262219e-02  2.6277760232972777e-02  2.7008392330562580e-02  2.7706211344209992e-02  2.8373777149757699e-02  2.9013483245645909e-02  2.9627395026115978e-02  3.0217369687902378e-02  3.0785084899844210e-02  3.1332014412382043e-02  3.1859505273476016e-02  3.2368770998780133e-02  3.2860894864449097e-02  3.3336860762269840e-02  3.3797573979447326e-02  3.4243815563010441e-02  3.4676336501864934e-02  3.5095799275435040e-02  3.5502794153367968e-02  3.5897874157104485e-02  3.6281536805697311e-02  3.6654231604419545e-02  3.7016363293221291e-02  3.7368304456579772e-02  3.7710387561381085e-02  3.8042913596385182e-02  3.8366155113575148e-02  3.8680353131221361e-02  3.8985723201861507e-02  3.9282457830865682e-02  3.9570724477723890e-02  3.9850668830055135e-02  4.0122420783668171e-02  4.0386079253717753e-02  4.0641735265524906e-02  4.0889456263281422e-02  4.1129293415886795e-02  4.1361280630838645e-02  4.1585434994937359e-02  4.1801757446419285e-02  4.2010231824961421e-02  4.2210828587534853e-02  4.2403498682085462e-02  4.2588180612460148e-02  4.2764793302459428e-02  4.2933244532166175e-02  4.3093421372241050e-02  4.3245194305082800e-02  4.3388418435257224e-02  4.3522927296564609e-02  4.3648541851186357e-02  4.3765060678155623e-02  4.3872258317667064e-02  4.3969900221026599e-02  4.4057720479534213e-02  4.4135421216255015e-02  4.4202707495832841e-02  4.4259224715397526e-02  4.4304626672927012e-02  4.4338508058841854e-02  4.4360446545808375e-02  4.4369978087331265e-02  4.4366616377142919e-02  4.4349820101452213e-02  4.4319022240605972e-02  4.4273596620740423e-02  4.4212877854104521e-02  4.4136142306335710e-02  4.4042610719887555e-02  4.3931446124667914e-02  4.3801708540215673e-02  4.3652458369986963e-02  4.3482597330661989e-02  4.3290974923288220e-02  4.3076332612527843e-02  4.2837299605825288e-02  4.2572385224677663e-02  4.2279973031840265e-02  4.1958278941578421e-02  4.1605367703975653e-02  4.1219107253923498e-02  4.0797164995750416e-02  4.0336964822879934e-02  3.9835671974326713e-02  3.9290158290651751e-02  3.8696932821628005e-02  3.8052150439816218e-02  3.7351526308700617e-02  3.6590232893684203e-02  3.5762910252490926e-02  3.4863525876257420e-02  3.3885221908447109e-02  3.2820344472503864e-02  3.1660025602605502e-02  3.0394428710462957e-02  2.9011844790640243e-02  2.7499321285010557e-02  2.5841429265325001e-02  2.4020493864929379e-02  2.2015442952479699e-02  1.9802082122024309e-02  1.7351139934750546e-02  1.4627991313436272e-02  1.1590286488178199e-02  8.1880221832468097e-03  4.3577727096075674e-03  6.2805217747615430e-03  1.2057382042562109e-02  1.7414126319422542e-02  2.2396944615137328e-02  2.7045566419655200e-02  3.1394765512010508e-02  3.5475585630798709e-02  3.9315562280836040e-02  4.2938951405580801e-02  4.6367710680366478e-02  4.9620923874068336e-02  5.2716483723901676e-02  5.5670390768432297e-02  5.8497333059018934e-02  6.1210245933778426e-02  6.3821677809552863e-02  6.6342689935565496e-02  6.8783931083636868e-02  7.1154830261275462e-02  7.3464969832524082e-02  7.5722079404549988e-02  7.7934675968772849e-02  8.0110023523368906e-02  8.2255411483519711e-02  8.4377870488879306e-02  8.6483849217902170e-02  8.8579753503168573e-02  9.0671740009986651e-02  9.2765871528660934e-02  9.4867969521462217e-02  9.6983773495423226e-02  9.9119060848133406e-02  1.0127946763184870e-01  1.0347062317560005e-01  1.0569811106113419e-01  1.0796757533346621e-01  1.1028469247703485e-01  1.1265519537636980e-01  1.1508487792724602e-01  1.1757967935911232e-01  1.2014558206603197e-01  1.2278874937690178e-01  1.2551548099006241e-01  1.2833223325084903e-01  1.3124567795732389e-01  1.3426264740230209e-01  1.3739025492982285e-01  1.4063581247345391e-01  1.4400690784347076e-01  1.4751145226489679e-01  1.5115758415069888e-01  1.5495381699143901e-01  1.5890896934294349e-01  1.6303226668874152e-01  1.6733330060845250e-01  1.7182208699647047e-01  1.7650905976924605e-01  1.8140511886820948e-01  1.8652166259248937e-01  1.9187058996651882e-01  1.9746436562312103e-01  2.0331599314845247e-01  2.0943911002806750e-01  2.1584796507491719e-01  2.2255748519968133e-01  2.2958331375194405e-01  2.3694182461955643e-01  2.4465016304771339e-01  2.5272630491782327e-01  2.6118907977643169e-01  2.7005822915899919e-01  2.7935446521223306e-01  2.8909944400029230e-01  2.9931593314513760e-01  3.1002776988449782e-01  3.2125996403575408e-01  3.3303874166927105e-01  3.4539160901074151e-01  3.5834741136044446e-01  3.7193641251233872e-01  3.8619035704968835e-01  4.0114254622379719e-01  4.1682791054769947e-01  4.3328310406159276e-01  4.5054657822017435e-01  4.6865868270285471e-01  4.8766175024320541e-01  5.0760019488040109e-01  5.2852062904449093e-01  5.5047196032320134e-01  5.7350551387674387e-01  5.9767514187249604e-01  6.2303737070232168e-01  6.4965150752832013e-01  6.7757980896507009e-01  7.0688760114157945e-01  7.3764346359542865e-01  7.6991934946066698e-01  8.0379080729130681e-01  8.3933715486078730e-01  8.7664162380978683e-01  9.1579162290435734e-01  9.5687895152971791e-01  -6.7778612494474838e-02  1.5283288939336184e-01  -3.9298659100351206e-02  -1.1332520396647955e-01  2.0574500663669096e-01  1.1913942771046068e-01  -2.6088560530316520e-02  -1.7542727385508325e-01  1.3836602198113107e-02  4.2677718774536341e-02  2.7581584238176965e-01  -2.4883614469969487e-01  -1.8458958144573139e-02  9.8075510445256003e-02  1.3261880749135677e-02  3.8978626884842868e-02  1.3568940156264314e-02  4.4094754025562170e-02  3.5163144413284597e-01  -3.3753989476174728e-01  -1.3702317090429480e-02  4.4184815231569180e-01  -5.0464850905617462e-02  -4.4160550938604343e-01  -8.7559184542716897e-02  1.1728165985524942e-02  3.3418369777873769e-02  8.3509362218100555e-02  6.2925628213436231e-03  5.0299003340395733e-03  3.5703978669336799e-02  3.2634730239332339e-02  3.8942702969952565e-03  2.9328193027403967e-02  3.7846923681505190e-02  7.4005263542091144e-03  1.3074834967379850e-02  4.4371888260331720e-02  1.2311100048664010e-03  3.2770907587026956e-03  -2.3466782731654805e-02  5.4018091309254634e-01  1.7426757141271976e-01  -3.1969474437125549e-02  -7.6932431046687828e-04  -5.5148558856979280e-01  -1.4098585446483547e-01  1.9192012837789954e-01  1.3250586386653065e-01  -2.3969046251469533e-01  4.1170054104119075e-01  -4.5683249090453626e-01  3.0153751710249531e-03  2.5964542041693271e-02  -9.9408937221858295e-03  7.2336673473462565e-02  3.9426877601401088e-02  8