<?xml version="1.0"?>
<VTKFile type="UnstructuredGrid"  version="0.1"  >
<UnstructuredGrid>
<Piece  NumberOfPoints="7120" NumberOfCells="13415">
<Points>
<DataArray  type="Float64"  NumberOfComponents="3"  format="ascii">0 0 0  450 0 0  450 300 0  0 300 0  239 0 0  241 0 0  240 1 0  241 1 0  245 0.5 0  249 0 0  251 0 0  250 1 0  251 1 0  255 0.5 0  259 0 0  261 0 0  260 1 0  261 1 0  218 6 0  220 6 0  219 5 0  219 7 0  450 18.74999999996255 0  450 37.4999999999247 0  450 56.24999999988687 0  450 74.99999999984904 0  450 93.74999999981115 0  450 112.4999999997733 0  450 131.2499999997187 0  450 149.9999999995976 0  450 168.7499999996431 0  450 187.4999999996941 0  450 206.249999999745 0  450 224.9999999997961 0  450 243.749999999847 0  450 262.499999999898 0  450 281.249999999949 0  430.4347826087039 300 0  410.8695652174077 300 0  391.3043478261116 300 0  371.7391304348154 300 0  352.1739130435193 300 0  332.6086956522231 300 0  313.043478260927 300 0  293.4782608696308 300 0  273.9130434783347 300 0  254.3478260870386 300 0  234.7826086957424 300 0  215.2173913043845 300 0  195.6521739129687 300 0  176.0869565216654 300 0  156.5217391303692 300 0  136.956521739073 300 0  117.3913043477769 300 0  97.82608695648076 300 0  78.26086956518463 300 0  58.69565217388845 300 0  39.13043478259226 300 0  19.56521739129619 300 0  0 281.2499999999868 0  0 262.4999999999736 0  0 243.7499999999605 0  0 224.9999999999473 0  0 206.2499999999341 0  0 187.4999999999209 0  0 168.749999999941 0  0 150.0000000000999 0  0 131.2500000000923 0  0 112.5000000000791 0  0 93.75000000006591 0  0 75.00000000005275 0  0 56.25000000003956 0  0 37.50000000002632 0  0 18.75000000001319 0  239.0020089923861 0.063355731562034 0  239.0078669237896 0.1251876954392177 0  239.0173189540956 0.1853050512541301 0  239.0301104026608 0.243545003999721 0  239.0459888465302 0.2997711111084815 0  239.0647058707711 0.3538712927462628 0  239.0860185776573 0.4057560345977113 0  239.1096908286717 0.4553565410189064 0  239.1354942695903 0.5026229621582694 0  239.1632091334853 0.5475226440227238 0  239.1926249250355 0.5900385481695689 0  239.2235407638306 0.6301674813628185 0  239.2557657849086 0.6679187323973781 0  239.2891195163637 0.7033128308121627 0  239.3234314721495 0.736379675929636 0  239.3585416405058 0.7671578540528868 0  239.3943001347868 0.7956932029876407 0  239.4305670884679 0.8220378089017952 0  239.4672124255662 0.8462490180372396 0  239.5041156045838 0.8683885457459335 0  239.5411652540955 0.8885216237947197 0  239.5782590182344 0.9067163527252478 0  239.6153028595457 0.9230428538948069 0  239.6522110523273 0.9375728493705031 0  239.6889055603574 0.9503790031474065 0  239.72531568381 0.961534464509318 0  239.7613777251139 0.9711124599798758 0  239.7970345748618 0.9791859048201496 0  239.8322353596756 0.9858270768531486 0  239.8669348413503 0.9911072916458271 0  239.9010933583037 0.9950967170221953 0  239.9346762707545 0.997864124216049 0  239.9676536620218 0.9994767202988784 0  240.0323463381051 0.99947672029477 0  240.0653237301236 0.9978641241585631 0  240.0989066431223 0.9950967168804671 0  240.1330651602428 0.9911072914319439 0  240.1677646419726 0.9858270765726634 0  240.2029654269951 0.979185904435247 0  240.2386222604036 0.9711124635385281 0  240.2746843192525 0.9615344636344383 0  240.3110944429274 0.9503790020721721 0  240.3477889498758 0.9375728485532481 0  240.3846971416895 0.9230428533800188 0  240.4217409837351 0.9067163518091972 0  240.4588347483695 0.888521622521743 0  240.4958843983252 0.8683885440847672 0  240.5327875773925 0.846249016174439 0  240.5694329140487 0.8220378071585059 0  240.6056998679296 0.7956932009198679 0  240.641458362852 0.7671578512452597 0  240.6765685310523 0.736379672987914 0  240.7108804867128 0.7033128277025616 0  240.7442342180933 0.6679187290524371 0  240.7764592391041 0.6301674777468723 0  240.8073750777669 0.5900385443348745 0  240.8367908685816 0.5475226408638091 0  240.8645057322388 0.502622959012232 0  240.8903091726418 0.4553565384507763 0  240.9139814234573 0.4057560320869432 0  240.935294130113 0.3538712904094632 0  240.9540111540606 0.2997711092283469 0  240.9698895977127 0.2435450025123902 0  240.9826810461417 0.1853050499957777 0  240.9921330763121 0.1251876946332835 0  240.9979910076399 0.06335573115285377 0  19.07313083408946 0 0  36.62914865337193 0 0  52.78872776666245 0 0  67.66294316503189 0 0  81.35403592247388 0 0  93.95611282074414 0 0  105.5557983528504 0 0  116.232821720657 0 0  126.0605737836516 0 0  135.1066082939938 0 0  143.4331031430934 0 0  151.0972942765542 0 0  158.1518597677678 0 0  164.6452915695546 0 0  170.6222242131193 0 0  176.1237410801825 0 0  181.1876562047598 0 0  185.8487776061107 0 0  190.1391446617669 0 0  194.0882480115289 0 0  197.7232317929691 0 0  201.0690823493409 0 0  204.1487976997366 0 0  206.9835466314066 0 0  209.5928142511325 0 0  211.9945355586087 0 0  214.2052194838717 0 0  216.2400614105106 0 0  218.1130481886055 0 0  219.8370539832718 0 0  221.4239291426067 0 0  222.8845810788478 0 0  224.2290504301268 0 0  225.4665779536317 0 0  226.605669993667 0 0  227.6541566437948 0 0  228.6192445405487 0 0  229.5075676876214 0 0  230.3252317386607 0 0  231.0778573048299 0 0  231.770617755868 0 0  232.408274652188 0 0  232.9952110508675 0 0  233.535461430947 0 0  234.0327392724896 0 0  234.4904626932667 0 0  234.9117779343538 0 0  235.2995808791209 0 0  235.6565373743904 0 0  235.985100819112 0 0  236.2875296991633 0 0  236.5659028059075 0 0  236.8221335872304 0 0  237.057983304845 0 0  237.2750730790692 0 0  237.4748950918539 0 0  237.6588229239073 0 0  237.8281207703916 0 0  237.9839523507871 0 0  238.1273887825019 0 0  238.2594160068179 0 0  238.3809415553307 0 0  238.492800698776 0 0  238.5957623728575 0 0  238.6905342816032 0 0  238.7777678597979 0 0  238.8580626994615 0 0  238.9319707379024 0 0  249.0020089923861 0.063355731562034 0  249.0078669237896 0.1251876954392177 0  249.0173189540956 0.1853050512541301 0  249.0301104026608 0.243545003999721 0  249.0459888465302 0.2997711111084815 0  249.0647058707711 0.3538712927462628 0  249.0860185776573 0.4057560345977113 0  249.1096908286717 0.4553565410189064 0  249.1354942695903 0.5026229621582694 0  249.1632091334853 0.5475226440227238 0  249.1926249250355 0.5900385481695689 0  249.2235407638306 0.6301674813628185 0  249.2557657849086 0.6679187323973781 0  249.2891195163637 0.7033128308121627 0  249.3234314721495 0.736379675929636 0  249.3585416405058 0.7671578540528868 0  249.3943001347868 0.7956932029876407 0  249.4305670884679 0.8220378089017952 0  249.4672124255662 0.8462490180372396 0  249.5041156045838 0.8683885457459335 0  249.5411652540955 0.8885216237947197 0  249.5782590182344 0.9067163527252478 0  249.6153028595457 0.9230428538948069 0  249.6522110523273 0.9375728493705031 0  249.6889055603574 0.9503790031474065 0  249.72531568381 0.961534464509318 0  249.7613777251139 0.9711124599798758 0  249.7970345748618 0.9791859048201496 0  249.8322353596756 0.9858270768531486 0  249.8669348413503 0.9911072916458271 0  249.9010933583037 0.9950967170221953 0  249.9346762707545 0.997864124216049 0  249.9676536620218 0.9994767202988784 0  250.0323463381051 0.99947672029477 0  250.0653237301236 0.9978641241585631 0  250.0989066431223 0.9950967168804671 0  250.1330651602428 0.9911072914319439 0  250.1677646419726 0.9858270765726634 0  250.2029654269951 0.979185904435247 0  250.2386222604036 0.9711124635385281 0  250.2746843192525 0.9615344636344383 0  250.3110944429274 0.9503790020721721 0  250.3477889498758 0.9375728485532481 0  250.3846971416895 0.9230428533800188 0  250.4217409837351 0.9067163518091972 0  250.4588347483695 0.888521622521743 0  250.4958843983252 0.8683885440847672 0  250.5327875773925 0.846249016174439 0  250.5694329140487 0.8220378071585059 0  250.6056998679296 0.7956932009198679 0  250.641458362852 0.7671578512452597 0  250.6765685310523 0.736379672987914 0  250.7108804867128 0.7033128277025616 0  250.7442342180933 0.6679187290524371 0  250.7764592391041 0.6301674777468723 0  250.8073750777669 0.5900385443348745 0  250.8367908685816 0.5475226408638091 0  250.8645057322388 0.502622959012232 0  250.8903091726418 0.4553565384507763 0  250.9139814234573 0.4057560320869432 0  250.935294130113 0.3538712904094632 0  250.9540111540606 0.2997711092283469 0  250.9698895977127 0.2435450025123902 0  250.9826810461417 0.1853050499957777 0  250.9921330763121 0.1251876946332835 0  250.9979910076399 0.06335573115285377 0  241.0650406504065 0 0  241.130081300813 0 0  241.1951219512195 0 0  241.260162601626 0 0  241.3252032520325 0 0  241.390243902439 0 0  241.4552845528455 0 0  241.520325203252 0 0  241.5853658536585 0 0  241.650406504065 0 0  241.7154471544715 0 0  241.780487804878 0 0  241.8455284552846 0 0  241.9105691056911 0 0  241.9756097560976 0 0  242.0406504065041 0 0  242.1056910569106 0 0  242.1707317073171 0 0  242.2357723577236 0 0  242.3008130081301 0 0  242.3658536585366 0 0  242.4308943089431 0 0  242.4959349593496 0 0  242.5609756097561 0 0  242.6260162601626 0 0  242.6910569105691 0 0  242.7560975609756 0 0  242.8211382113821 0 0  242.8861788617886 0 0  242.9512195121951 0 0  243.0162601626016 0 0  243.0813008130081 0 0  243.1463414634146 0 0  243.2113821138211 0 0  243.2764227642276 0 0  243.3414634146341 0 0  243.4065040650407 0 0  243.4715447154472 0 0  243.5365853658537 0 0  243.6016260162602 0 0  243.6666666666667 0 0  243.7317073170732 0 0  243.7967479674797 0 0  243.8617886178862 0 0  243.9268292682927 0 0  243.9918699186992 0 0  244.0569105691057 0 0  244.1219512195122 0 0  244.1869918699187 0 0  244.2520325203252 0 0  244.3170731707317 0 0  244.3821138211382 0 0  244.4471544715447 0 0  244.5121951219512 0 0  244.5772357723577 0 0  244.6422764227642 0 0  244.7073170731707 0 0  244.7723577235772 0 0  244.8373983739837 0 0  244.9024390243902 0 0  244.9674796747967 0 0  245.0325203252033 0 0  245.0975609756098 0 0  245.1626016260163 0 0  245.2276422764228 0 0  245.2926829268293 0 
[...]
<PointData  Scalars="foodini"> 
<DataArray  type="Float64"  Name="foodini"  format="ascii">0.0000000000000000e+00  0.0000000000000000e+00  0.0000000000000000e+00  0.0000000000000000e+00  0.0000000000000000e+00  0.0000000000000000e+00  0.0000000000000000e+00  5.1434041161546810e-02  1.0596254838716793e-01  0.0000000000000000e+00  0.0000000000000000e+00  0.0000000000000000e+00  3.1595557946906230e-02  6.9981204193693206e-02  0.0000000000000000e+00  0.0000000000000000e+00  0.0000000000000000e+00  2.4073473647284769e-02  1.0000000000000000e+00  9.9999999999999989e-01  9.9999999999999989e-01  1.0000000000000000e+00  0.0000000000000000e+00  0.0000000000000000e+00  0.0000000000000000e+00  0.0000000000000000e+00  0.0000000000000000e+00  0.0000000000000000e+00  0.0000000000000000e+00  0.0000000000000000e+00  0.0000000000000000e+00  0.0000000000000000e+00  0.0000000000000000e+00  0.0000000000000000e+00  0.0000000000000000e+00  0.0000000000000000e+00  0.0000000000000000e+00  0.0000000000000000e+00  0.0000000000000000e+00  0.0000000000000000e+00  0.0000000000000000e+00  0.0000000000000000e+00  0.0000000000000000e+00  0.0000000000000000e+00  0.0000000000000000e+00  0.0000000000000000e+00  0.0000000000000000e+00  0.0000000000000000e+00  0.0000000000000000e+00  0.0000000000000000e+00  0.0000000000000000e+00  0.0000000000000000e+00  0.0000000000000000e+00  0.0000000000000000e+00  0.0000000000000000e+00  0.0000000000000000e+00  0.0000000000000000e+00  0.0000000000000000e+00  0.0000000000000000e+00  0.0000000000000000e+00  0.0000000000000000e+00  0.0000000000000000e+00  0.0000000000000000e+00  0.0000000000000000e+00  0.0000000000000000e+00  0.0000000000000000e+00  0.0000000000000000e+00  0.0000000000000000e+00  0.0000000000000000e+00  0.0000000000000000e+00  0.0000000000000000e+00  0.0000000000000000e+00  0.0000000000000000e+00  0.0000000000000000e+00  0.0000000000000000e+00  0.0000000000000000e+00  0.0000000000000000e+00  0.0000000000000000e+00  0.0000000000000000e+00  0.0000000000000000e+00  0.0000000000000000e+00  0.0000000000000000e+00  0.0000000000000000e+00  0.0000000000000000e+00  0.0000000000000000e+00  0.0000000000000000e+00  0.0000000000000000e+00  0.0000000000000000e+00  0.0000000000000000e+00  0.0000000000000000e+00  0.0000000000000000e+00  0.0000000000000000e+00  0.0000000000000000e+00  0.0000000000000000e+00  0.0000000000000000e+00  0.0000000000000000e+00  0.0000000000000000e+00  0.0000000000000000e+00  0.0000000000000000e+00  0.0000000000000000e+00  0.0000000000000000e+00  0.0000000000000000e+00  0.0000000000000000e+00  0.0000000000000000e+00  0.0000000000000000e+00  0.0000000000000000e+00  0.0000000000000000e+00  0.0000000000000000e+00  0.0000000000000000e+00  0.0000000000000000e+00  0.0000000000000000e+00  0.0000000000000000e+00  0.0000000000000000e+00  0.0000000000000000e+00  0.0000000000000000e+00  0.0000000000000000e+00  0.0000000000000000e+00  0.0000000000000000e+00  0.0000000000000000e+00  0.0000000000000000e+00  0.0000000000000000e+00  0.0000000000000000e+00  0.0000000000000000e+00  0.0000000000000000e+00  0.0000000000000000e+00  0.0000000000000000e+00  0.0000000000000000e+00  0.0000000000000000e+00  0.0000000000000000e+00  0.0000000000000000e+00  0.0000000000000000e+00  0.0000000000000000e+00  0.0000000000000000e+00  0.0000000000000000e+00  0.0000000000000000e+00  0.0000000000000000e+00  0.0000000000000000e+00  0.0000000000000000e+00  0.0000000000000000e+00  0.0000000000000000e+00  3.3106274647528217e-03  6.5160459105986423e-03  9.7448287399487538e-03  1.3095350851044203e-02  1.6648849510846577e-02  2.0479876027351570e-02  2.4661577096006925e-02  2.9270570874780275e-02  3.4392876289771265e-02  4.0119546881246075e-02  4.6566081512389286e-02  5.3865924219917038e-02  6.2180100297414304e-02  7.1707197786983770e-02  8.2697795593851653e-02  9.5464314646592205e-02  1.1041153666635428e-01  1.2805006084987849e-01  1.4907800088587098e-01  1.7439671973677445e-01  2.0523361546801272e-01  2.4320837139716245e-01  2.9045684908783009e-01  3.4981925050826379e-01  4.2415851358033535e-01  5.1515477217232220e-01  6.1854301094081399e-01  7.1682237596751397e-01  7.7702933651330419e-01  7.7692249034759109e-01  7.2794853806838478e-01  6.5909283483803816e-01  5.9046943586893508e-01  5.3020268528805869e-01  4.7959012758233110e-01  4.3759393038952998e-01  4.0266175900430923e-01  3.7335902554158645e-01  3.4849647013494939e-01  3.2714411345549971e-01  3.0857728946025825e-01  2.9222999345307615e-01  2.7766304598787939e-01  2.6452336732454296e-01  2.5253081045331921e-01  2.4145746320984501e-01  2.3111428095436498e-01  2.2134452092545276e-01  2.1201524864704710e-01  2.0301102945329580e-01  1.9423213836587341e-01  1.8558955677321895e-01  1.7700413850455662e-01  1.6840376331528442e-01  1.5972116457870392e-01  1.5089502687493778e-01  1.4186730707039355e-01  1.3258301279787316e-01  1.2298919358670368e-01  1.1303642286174888e-01  1.0267716248330845e-01  9.1863963941933080e-02  8.0555187432157033e-02  6.8705859532333949e-02  5.6277880432419505e-02  4.3233681329227308e-02  2.9538558673299117e-02  1.5161116946914480e-02  0.0000000000000000e+00  0.0000000000000000e+00  0.0000000000000000e+00  0.0000000000000000e+00  0.0000000000000000e+00  0.0000000000000000e+00  0.0000000000000000e+00  0.0000000000000000e+00  0.0000000000000000e+00  0.0000000000000000e+00  0.0000000000000000e+00  0.0000000000000000e+00  0.0000000000000000e+00  0.0000000000000000e+00  0.0000000000000000e+00  0.0000000000000000e+00  0.0000000000000000e+00  0.0000000000000000e+00  0.0000000000000000e+00  0.0000000000000000e+00  0.0000000000000000e+00  0.0000000000000000e+00  0.0000000000000000e+00  0.0000000000000000e+00  0.0000000000000000e+00  0.0000000000000000e+00  0.0000000000000000e+00  0.0000000000000000e+00  0.0000000000000000e+00  0.0000000000000000e+00  0.0000000000000000e+00  0.0000000000000000e+00  0.0000000000000000e+00  0.0000000000000000e+00  0.0000000000000000e+00  0.0000000000000000e+00  0.0000000000000000e+00  0.0000000000000000e+00  0.0000000000000000e+00  0.0000000000000000e+00  0.0000000000000000e+00  0.0000000000000000e+00  0.0000000000000000e+00  0.0000000000000000e+00  0.0000000000000000e+00  0.0000000000000000e+00  0.0000000000000000e+00  0.0000000000000000e+00  0.0000000000000000e+00  0.0000000000000000e+00  0.0000000000000000e+00  0.0000000000000000e+00  0.0000000000000000e+00  0.0000000000000000e+00  0.0000000000000000e+00  0.0000000000000000e+00  0.0000000000000000e+00  0.0000000000000000e+00  0.0000000000000000e+00  0.0000000000000000e+00  0.0000000000000000e+00  0.0000000000000000e+00  0.0000000000000000e+00  0.0000000000000000e+00  0.0000000000000000e+00  0.0000000000000000e+00  1.0248723874924152e-02  1.9260592460282770e-02  2.7267910793055617e-02  3.4420448120067851e-02  4.0837613735253464e-02  4.6618183442128952e-02  5.1844062218706140e-02  5.6583502714024993e-02  6.0894091496275109e-02  6.4824826207445882e-02  6.8417131566174988e-02  7.1707353629685902e-02  7.4726329138595851e-02  7.7500575047175793e-02  8.0053665513641029e-02  8.2406109553045281e-02  8.4576079653917752e-02  8.6579476117256846e-02  8.8430404261219800e-02  9.0141446163652633e-02  9.1723759243273986e-02  9.3187602364846370e-02  9.4541584426055800e-02  9.5794165765382855e-02  9.6952381325191905e-02  9.8023025737268149e-02  9.9012007519696438e-02  9.9924748742736408e-02  1.0076628543040796e-01  1.0154100388378429e-01  1.0225308460271181e-01  1.0290625653025760e-01  1.0350399881956865e-01  1.0404949507580251e-01  1.0454558960798334e-01  1.0499497642077568e-01  1.0540012435041039e-01  1.0576330461499366e-01  1.0608656168252134e-01  1.0637186633785808e-01  1.0662098372790278e-01  1.0683553890710547e-01  1.0701706750510964e-01  1.0716697138968276e-01  1.0728654121806169e-01  1.0737698093761053e-01  1.0743938616448495e-01  1.0747477880593391e-01  1.0748409423437677e-01  1.0746820911589085e-01  1.0742790194346030e-01  1.0736393218864776e-01  1.0727692392727058e-01  1.0716751415607127e-01  1.0703624833580398e-01  1.0688361581167648e-01  1.0671006344360767e-01  1.0651599612869093e-01  1.0630176112182356e-01  1.0606766913725564e-01  1.0581397954066714e-01  1.0554090179284024e-01  1.0524860770810876e-01  1.0493722948064337e-01  1.0460685572015227e-01  1.0425753468489853e-01  1.0388927222504153e-01  1.0350203204656246e-01  1.0309573461588870e-01  1.0267025694652253e-01  1.0222543748546975e-01  1.0176106171372470e-01  1.0127686938079802e-01  1.0077255779862604e-01  1.0024776913664839e-01  9.9702093966129363e-02  9.9135064013304311e-02  9.8546158444790144e-02  9.7934793383557747e-02  9.7300309922774039e-02  9.6641990084275292e-02  9.5959040257325434e-02  9.5250586217651534e-02  9.4515666801501461e-02  9.3753193720942263e-02  9.2962047782508342e-02  9.2140927880306644e-02  9.1288460655114978e-02  9.0403108000648422e-02  8.9483196063411319e-02  8.8526909729931991e-02  8.7532240205970946e-02  8.6496982174504022e-02  8.5418709841545204e-02  8.4294773263052500e-02  8.3122237361661286e-02  8.1897882329993926e-02  8.0618106787714888e-02  7.9279043289351495e-02  7.7876223796531252e-02  7.6404814361176743e-02  7.4859446746142227e-02  7.3233985981641520e-02  7.1521696457999634e-02  6.9714954989267844e-02  6.7805112353036393e-02  6.5782653192529961e-02  6.3636355637670006e-02  6.1353751097171998e-02  5.8920555378429829e-02  5.6320205092915646e-02  5.3533640924180677e-02  5.0538802136241512e-02  4.7309912318097218e-02  4.3816644136287955e-02  4.0022738300243971e-02  3.5886620776996246e-02  3.1355506327833980e-02  2.6368833226563582e-02  2.0850202936979031e-02  1.4705278424084501e-02  7.8186462308689510e-03  0.0000000000000000e+00  0.0000000000000000e+00  0.0000000000000000e+00  0.0000000000000000e+00  0.0000000000000000e+00  0.0000000000000000e+00  0.0000000000000000e+00  0.0000000000000000e+00  0.0000000000000000e+00  0.0000000000000000e+00  0.0000000000000000e+00  0.0000000000000000e+00  0.0000000000000000e+00  0.0000000000000000e+00  0.0000000000000000e+00  0.0000000000000000e+00  0.0000000000000000e+00  0.0000000000000000e+00  0.0000000000000000e+00  0.0000000000000000e+00  0.0000000000000000e+00  0.0000000000000000e+00  0.0000000000000000e+00  0.0000000000000000e+00  0.0000000000000000e+00  0.0000000000000000e+00  0.0000000000000000e+00  0.0000000000000000e+00  0.0000000000000000e+00  0.0000000000000000e+00  0.0000000000000000e+00  0.0000000000000000e+00  0.0000000000000000e+00  0.0000000000000000e+00  0.0000000000000000e+00  0.0000000000000000e+00  0.0000000000000000e+00  0.0000000000000000e+00  0.0000000000000000e+00  0.0000000000000000e+00  0.0000000000000000e+00  0.0000000000000000e+00  0.0000000000000000e+00  0.0000000000000000e+00  0.0000000000000000e+00  0.0000000000000000e+00  0.0000000000000000e+00  0.0000000000000000e+00  0.0000000000000000e+00  0.0000000000000000e+00  0.0000000000000000e+00  0.0000000000000000e+00  0.0000000000000000e+00  0.0000000000000000e+00  0.0000000000000000e+00  0.0000000000000000e+00  0.0000000000000000e+00  0.0000000000000000e+00  0.0000000000000000e+00  0.0000000000000000e+00  0.0000000000000000e+00  0.0000000000000000e+00  0.0000000000000000e+00  0.0000000000000000e+00  0.0000000000000000e+00  0.0000000000000000e+00  6.3974441477400671e-03  1.2024888783318102e-02  1.7029543581777336e-02  2.1505618162797495e-02  2.5528119377864290e-02  2.9158645703514244e-02  3.2448093130091768e-02  3.5439015540714602e-02  3.8167042989955574e-02  4.0662298209006638e-02  4.2950553892483818e-02  4.5053896622021319e-02  4.6991299074613989e-02  4.8779211987614209e-02  5.0431999379350209e-02  5.1962228314660477e-02  5.3380870055714770e-02  5.4697608170884877e-02  5.5921097402073495e-02  5.7058924429128882e-02  5.8117903945721687e-02  5.9104130332618583e-02  6.0023058775647418e-02  6.0879594105089162e-02  6.1678148358427991e-02  6.2422725337734880e-02  6.3116923821203028e-02  6.3764110072088209e-02  6.4367157650852116e-02  6.4928851164275117e-02  6.5451629566801381e-02  6.5937803113490664e-02  6.6389402657529711e-02  6.6808365557788282e-02  6.7196409244796515e-02  6.7555179254304515e-02  6.7886078013662324e-02  6.8190537010796110e-02  6.8469751961552944e-02  6.8724913120427819e-02  6.8957058740098470e-02  6.9167189878452717e-02  6.9356199863100279e-02  6.9524922135983269e-02  6.9674147101994516e-02  6.9804544481436678e-02  6.9916794368268906e-02  7.0011497224037211e-02  7.0089203197702898e-02  7.0150424669450331e-02  7.0195625082577470e-02  7.0225220619575549e-02  7.0239600384273265e-02  7.0239107454404051e-02  7.0224063967030168e-02  7.0194737711056235e-02  7.0151382823399347e-02  7.0094219459063592e-02  7.0023433113806557e-02  6.9939181104738041e-02  6.9841594747642538e-02  6.9730776624522955e-02  6.9606799686513454e-02  6.9469712624592672e-02  6.9319535393002230e-02  6.9156259141264942e-02  6.8979847339861705e-02  6.8790237238609026e-02  6.8587338524419811e-02  6.8371031957278006e-02  6.8141162201507441e-02  6.7897556217857952e-02  6.7640000113519477e-02  6.7368245198988097e-02  6.7082010968462391e-02  6.6780988592893165e-02  6.6464818547780857e-02  6.6133113302809715e-02  6.5785415033584912e-02  6.5421263812698902e-02  6.5040111656786304e-02  6.4641381516719221e-02  6.4224427734779488e-02  6.3788540271403696e-02  6.3332966595833221e-02  6.2856846053075649e-02  6.2359275791256830e-02  6.1839250201602705e-02  6.1295648786507999e-02  6.0727301677207593e-02  6.0132879710407219e-02  5.9510945031217691e-02  5.8859913259811256e-02  5.8178062667936882e-02  5.7463488827682978e-02  5.6714107890353374e-02  5.5927619520176677e-02  5.5101477464874052e-02  5.4232859980544681e-02  5.3318671150631006e-02  5.2355445598295025e-02  5.1339338628498002e-02  5.0266058489359770e-02  4.9130797278658857e-02  4.7928155560310180e-02  4.6652066235445606e-02  4.5295672920802436e-02  4.3851208656361225e-02  4.2309812880678553e-02  4.0661370076179544e-02  3.8894290112653003e-02  3.6995188522739052e-02  3.4948551541646486e-02  3.2736198030102359e-02  3.0336994305952335e-02  2.7725891428270821e-02  2.4873171381399793e-02  2.1743015492132221e-02  1.8292352446908387e-02  1.4468864166720162e-02  1.0207690641037747e-02  5.4281413777893606e-03  5.1929799180472115e-03  1.0203447967202163e-02  1.5034723177823476e-02  1.9668111677695426e-02  2.4087566671113100e-02  2.8280616416091000e-02  3.2237460006320717e-02  3.5951251737080830e-02  3.9417042931741114e-02  4.2632160947440594e-02  4.5596912185669129e-02  4.8311721349588013e-02  5.0779561612616451e-02  5.3003706048319457e-02  5.4988239241552765e-02  5.6737550266562388e-02  5.8256209279095646e-02  5.9548551441279622e-02  6.0619176399114495e-02  6.1471813054259014e-02  6.2110038610388496e-02  6.2536729952267431e-02  6.2754971203882445e-02  6.2767422089273647e-02  6.2575782055146273e-02  6.2182862960771808e-02  6.1591113248768724e-02  6.0803277362335525e-02  5.9822898871552628e-02  5.8654241409154644e-02  5.7302494042188845e-02  5.5774322534642672e-02  5.4077639359092905e-02  5.2221847347639641e-02  5.0217883148974365e-02  4.8078279061058674e-02  4.5816992617599119e-02  4.3449267873767614e-02  4.0991419962791077e-02  3.8460455229901928e-02  3.5873886861308775e-02  3.3249161676883472e-02  3.0603214295881673e-02  2.7951901084108527e-02  2.5309777680427286e-02  2.2689358402700789e-02  2.0100556291875654e-02  1.7549445992798750e-02  1.5039381880411614e-02  1.2567049747485062e-02  1.0122736635376666e-02  7.6878161152033487e-03  5.2297889141671655e-03  2.6947461510223310e-03  9.9999999999999989e-01  1.0000000000000000e+00  1.0000000000000000e+00  1.0000000000000000e+00  1.0000000000000000e+00  9.9999999999999989e-01  9.9999999999999989e-01  1.0000000000000002e+00  1.0000000000000000e+00  1.0000000000000000e+00  1.0000000000000000e+00  1.0000000000000000e+00  9.9999999999999989e-01  1.0000000000000000e+00  1.0000000000000000e+00  9.9999999999999989e-01  1.0000000000000000e+00  1.0000000000000000e+00  1.0000000000000000e+00  9.9999999999999989e-01  9.9999999999999989e-01  1.0000000000000000e+00  1.0000000000000002e+00  1.0000000000000000e+00  9.9999999999999989e-01  1.0000000000000000e+00  1.0000000000000000e+00  9.9999999999999989e-01  1.0000000000000000e+00  1.0000000000000002e+00  1.0000000000000000e+00  1.0000000000000000e+00  9.9999999999999989e-01  9.9999999999999989e-01  9.9999999999999989e-01  1.0000000000000000e+00  1.0000000000000002e+00  1.0000000000000000e+00  1.0000000000000000e+00  9.9999999999999989e-01  1.0000000000000000e+00  1.0000000000000000e+00  1.0000000000000000e+00  1.0000000000000000e+00  1.0000000000000000e+00  1.0000000000000000e+00  1.0000000000000000e+00  1.0000000000000000e+00  9.9999999999999989e-01  9.9999999999999989e-01  1.0000000000000000e+00  9.9999999999999989e-01  9.9999999999999989e-01  1.0000000000000000e+00  9.9999999999999989e-01  1.0000000000000000e+00  1.0000000000000000e+00  1.0000000000000000e+00  1.0000000000000000e+00  1.0000000000000000e+00  9.9999999999999989e-01  1.0000000000000000e+00  1.0000000000000000e+00  1.0000000000000000e+00  9.9999999999999989e-01  1.0000000000000000e+00  1.0000000000000000e+00  1.0000000000000000e+00  9.9999999999999989e-01  1.0000000000000000e+00  1.0000000000000000e+00  1.0000000000000000e+00  1.0000000000000000e+00  9.9999999999999989e-01  1.0000000000000002e+00  1.0000000000000000e+00  1.0000000000000000e+00  1.0000000000000000e+00  1.0000000000000000e+00  1.0000000000000000e+00  1.0000000000000000e+00  9.9999999999999978e-01  1.0000000000000002e+00  9.9999999999999989e-01  1.0000000000000000e+00  1.0000000000000000e+00  1.0000000000000000e+00  1.0000000000000000e+00  1.0000000000000002e+00  1.0000000000000000e+00  1.0000000000000000e+00  1.0000000000000000e+00  1.0000000000000000e+00  1.0000000000000002e+00  1.0000000000000000e+00  9.9999999999999989e-01  1.0000000000000000e+00  1.0000000000000000e+00  1.0000000000000000e+00  1.0000000000000000e+00  1.0000000000000000e+00  1.0000000000000000e+00  1.0000000000000000e+00  1.0000000000000000e+00  1.0000000000000000e+00  1.0000000000000000e+00  9.9999999999999989e-01  1.0000000000000002e+00  1.0000000000000000e+00  1.0000000000000002e+00  1.0000000000000002e+00  1.0000000000000000e+00  9.9999999999999989e-01  9.9999999999999989e-01  1.0000000000000000e+00  1.0000000000000000e+00  1.0000000000000000e+00  1.0000000000000000e+00  9.9999999999999989e-01  1.0000000000000000e+00  1.0000000000000000e+00  1.0000000000000000e+00  9.9999999999999989e-01  9.9999999999999989e-01  9.9999999999999989e-01  9.9999999999999989e-01  1.0000000000000000e+00  1.0000000000000000e+00  9.9999999999999989e-01  1.0000000000000000e+00  1.0000000000000000e+00  1.0000000000000000e+00  9.9999999999999989e-01  1.0000000000000000e+00  1.0000000000000000e+00  1.0000000000000000e+00  1.0000000000000000e+00  1.0000000000000000e+00  1.0000000000000002e+00  9.9999999999999989e-01  1.0000000000000000e+00  1.0000000000000000e+00  1.0000000000000000e+00  1.0000000000000000e+00  1.0000000000000000e+00  1.0000000000000000e+00  1.0000000000000000e+00  1.0000000000000000e+00  1.0000000000000000e+00  1.0000000000000000e+00  1.0000000000000000e+00  1.0000000000000000e+00  9.9999999999999989e-01  1.0000000000000000e+00  9.9999999999999989e-01  9.9999999999999989e-01  1.0000000000000000e+00  9.9999999999999978e-01  1.0000000000000002e+00  1.0000000000000000e+00  1.0000000000000000e+00  1.0000000000000000e+00  1.0000000000000000e+00  1.0000000000000000e+00  9.9999999999999989e-01  1.0000000000000000e+00  1.0000000000000000e+00  1.0000000000000000e+00  9.9999999999999989e-01  1.0000000000000000e+00  1.0000000000000000e+00  1.0000000000000000e+00  9.9999999999999989e-01  1.0000000000000000e+00  1.0000000000000000e+00  1.0000000000000000e+00  9.9999999999999989e-01  1.0000000000000000e+00  1.0000000000000000e+00  9.9999999999999989e-01  1.0000000000000000e+00  9.9999999999999989e-01  1.0000000000000000e+00  9.9999999999999989e-01  1.0000000000000000e+00  9.9999999999999989e-01  9.9999999999999989e-01  1.0000000000000000e+00  1.0000000000000000e+00  1.0000000000000000e+00  1.0000000000000000e+00  1.00000000000