<?xml version="1.0"?>
<VTKFile type="UnstructuredGrid"  version="0.1"  >
<UnstructuredGrid>
<Piece  NumberOfPoints="6042" NumberOfCells="11349">
<Points>
<DataArray  type="Float64"  NumberOfComponents="3"  format="ascii">0 0 0  450 0 0  450 300 0  0 300 0  239 0 0  241 0 0  240 1 0  241 1 0  242 0.5 0  243 0 0  245 0 0  244 1 0  245 1 0  249 0.5 0  253 0 0  255 0 0  254 1 0  255 1 0  218 6 0  220 6 0  219 5 0  219 7 0  450 18.74999999996255 0  450 37.4999999999247 0  450 56.24999999988687 0  450 74.99999999984904 0  450 93.74999999981115 0  450 112.4999999997733 0  450 131.2499999997187 0  450 149.9999999995976 0  450 168.7499999996431 0  450 187.4999999996941 0  450 206.249999999745 0  450 224.9999999997961 0  450 243.749999999847 0  450 262.499999999898 0  450 281.249999999949 0  430.4347826087039 300 0  410.8695652174077 300 0  391.3043478261116 300 0  371.7391304348154 300 0  352.1739130435193 300 0  332.6086956522231 300 0  313.043478260927 300 0  293.4782608696308 300 0  273.9130434783347 300 0  254.3478260870386 300 0  234.7826086957424 300 0  215.2173913043845 300 0  195.6521739129687 300 0  176.0869565216654 300 0  156.5217391303692 300 0  136.956521739073 300 0  117.3913043477769 300 0  97.82608695648076 300 0  78.26086956518463 300 0  58.69565217388845 300 0  39.13043478259226 300 0  19.56521739129619 300 0  0 281.2499999999868 0  0 262.4999999999736 0  0 243.7499999999605 0  0 224.9999999999473 0  0 206.2499999999341 0  0 187.4999999999209 0  0 168.749999999941 0  0 150.0000000000999 0  0 131.2500000000923 0  0 112.5000000000791 0  0 93.75000000006591 0  0 75.00000000005275 0  0 56.25000000003956 0  0 37.50000000002632 0  0 18.75000000001319 0  239.0020089923861 0.063355731562034 0  239.0078669237896 0.1251876954392177 0  239.0173189540956 0.1853050512541301 0  239.0301104026608 0.243545003999721 0  239.0459888465302 0.2997711111084815 0  239.0647058707711 0.3538712927462628 0  239.0860185776573 0.4057560345977113 0  239.1096908286717 0.4553565410189064 0  239.1354942695903 0.5026229621582694 0  239.1632091334853 0.5475226440227238 0  239.1926249250355 0.5900385481695689 0  239.2235407638306 0.6301674813628185 0  239.2557657849086 0.6679187323973781 0  239.2891195163637 0.7033128308121627 0  239.3234314721495 0.736379675929636 0  239.3585416405058 0.7671578540528868 0  239.3943001347868 0.7956932029876407 0  239.4305670884679 0.8220378089017952 0  239.4672124255662 0.8462490180372396 0  239.5041156045838 0.8683885457459335 0  239.5411652540955 0.8885216237947197 0  239.5782590182344 0.9067163527252478 0  239.6153028595457 0.9230428538948069 0  239.6522110523273 0.9375728493705031 0  239.6889055603574 0.9503790031474065 0  239.72531568381 0.961534464509318 0  239.7613777251139 0.9711124599798758 0  239.7970345748618 0.9791859048201496 0  239.8322353596756 0.9858270768531486 0  239.8669348413503 0.9911072916458271 0  239.9010933583037 0.9950967170221953 0  239.9346762707545 0.997864124216049 0  239.9676536620218 0.9994767202988784 0  240.0323463381051 0.99947672029477 0  240.0653237301236 0.9978641241585631 0  240.0989066431223 0.9950967168804671 0  240.1330651602428 0.9911072914319439 0  240.1677646419726 0.9858270765726634 0  240.2029654269951 0.979185904435247 0  240.2386222604036 0.9711124635385281 0  240.2746843192525 0.9615344636344383 0  240.3110944429274 0.9503790020721721 0  240.3477889498758 0.9375728485532481 0  240.3846971416895 0.9230428533800188 0  240.4217409837351 0.9067163518091972 0  240.4588347483695 0.888521622521743 0  240.4958843983252 0.8683885440847672 0  240.5327875773925 0.846249016174439 0  240.5694329140487 0.8220378071585059 0  240.6056998679296 0.7956932009198679 0  240.641458362852 0.7671578512452597 0  240.6765685310523 0.736379672987914 0  240.7108804867128 0.7033128277025616 0  240.7442342180933 0.6679187290524371 0  240.7764592391041 0.6301674777468723 0  240.8073750777669 0.5900385443348745 0  240.8367908685816 0.5475226408638091 0  240.8645057322388 0.502622959012232 0  240.8903091726418 0.4553565384507763 0  240.9139814234573 0.4057560320869432 0  240.935294130113 0.3538712904094632 0  240.9540111540606 0.2997711092283469 0  240.9698895977127 0.2435450025123902 0  240.9826810461417 0.1853050499957777 0  240.9921330763121 0.1251876946332835 0  240.9979910076399 0.06335573115285377 0  19.07313083408946 0 0  36.62914865337193 0 0  52.78872776666245 0 0  67.66294316503189 0 0  81.35403592247388 0 0  93.95611282074414 0 0  105.5557983528504 0 0  116.232821720657 0 0  126.0605737836516 0 0  135.1066082939938 0 0  143.4331031430934 0 0  151.0972942765542 0 0  158.1518597677678 0 0  164.6452915695546 0 0  170.6222242131193 0 0  176.1237410801825 0 0  181.1876562047598 0 0  185.8487776061107 0 0  190.1391446617669 0 0  194.0882480115289 0 0  197.7232317929691 0 0  201.0690823493409 0 0  204.1487976997366 0 0  206.9835466314066 0 0  209.5928142511325 0 0  211.9945355586087 0 0  214.2052194838717 0 0  216.2400614105106 0 0  218.1130481886055 0 0  219.8370539832718 0 0  221.4239291426067 0 0  222.8845810788478 0 0  224.2290504301268 0 0  225.4665779536317 0 0  226.605669993667 0 0  227.6541566437948 0 0  228.6192445405487 0 0  229.5075676876214 0 0  230.3252317386607 0 0  231.0778573048299 0 0  231.770617755868 0 0  232.408274652188 0 0  232.9952110508675 0 0  233.535461430947 0 0  234.0327392724896 0 0  234.4904626932667 0 0  234.9117779343538 0 0  235.2995808791209 0 0  235.6565373743904 0 0  235.985100819112 0 0  236.2875296991633 0 0  236.5659028059075 0 0  236.8221335872304 0 0  237.057983304845 0 0  237.2750730790692 0 0  237.4748950918539 0 0  237.6588229239073 0 0  237.8281207703916 0 0  237.9839523507871 0 0  238.1273887825019 0 0  238.2594160068179 0 0  238.3809415553307 0 0  238.492800698776 0 0  238.5957623728575 0 0  238.6905342816032 0 0  238.7777678597979 0 0  238.8580626994615 0 0  238.9319707379024 0 0  243.0020089923861 0.063355731562034 0  243.0078669237896 0.1251876954392177 0  243.0173189540956 0.1853050512541301 0  243.0301104026608 0.243545003999721 0  243.0459888465302 0.2997711111084815 0  243.0647058707711 0.3538712927462628 0  243.0860185776573 0.4057560345977113 0  243.1096908286717 0.4553565410189064 0  243.1354942695903 0.5026229621582694 0  243.1632091334853 0.5475226440227238 0  243.1926249250355 0.5900385481695689 0  243.2235407638306 0.6301674813628185 0  243.2557657849086 0.6679187323973781 0  243.2891195163637 0.7033128308121627 0  243.3234314721495 0.736379675929636 0  243.3585416405058 0.7671578540528868 0  243.3943001347868 0.7956932029876407 0  243.4305670884679 0.8220378089017952 0  243.4672124255662 0.8462490180372396 0  243.5041156045838 0.8683885457459335 0  243.5411652540955 0.8885216237947197 0  243.5782590182344 0.9067163527252478 0  243.6153028595457 0.9230428538948069 0  243.6522110523273 0.9375728493705031 0  243.6889055603574 0.9503790031474065 0  243.72531568381 0.961534464509318 0  243.7613777251139 0.9711124599798758 0  243.7970345748618 0.9791859048201496 0  243.8322353596756 0.9858270768531486 0  243.8669348413503 0.9911072916458271 0  243.9010933583037 0.9950967170221953 0  243.9346762707545 0.997864124216049 0  243.9676536620218 0.9994767202988784 0  244.0323463381051 0.99947672029477 0  244.0653237301236 0.9978641241585631 0  244.0989066431223 0.9950967168804671 0  244.1330651602428 0.9911072914319439 0  244.1677646419726 0.9858270765726634 0  244.2029654269951 0.979185904435247 0  244.2386222604036 0.9711124635385281 0  244.2746843192525 0.9615344636344383 0  244.3110944429274 0.9503790020721721 0  244.3477889498758 0.9375728485532481 0  244.3846971416895 0.9230428533800188 0  244.4217409837351 0.9067163518091972 0  244.4588347483695 0.888521622521743 0  244.4958843983252 0.8683885440847672 0  244.5327875773925 0.846249016174439 0  244.5694329140487 0.8220378071585059 0  244.6056998679296 0.7956932009198679 0  244.641458362852 0.7671578512452597 0  244.6765685310523 0.736379672987914 0  244.7108804867128 0.7033128277025616 0  244.7442342180933 0.6679187290524371 0  244.7764592391041 0.6301674777468723 0  244.8073750777669 0.5900385443348745 0  244.8367908685816 0.5475226408638091 0  244.8645057322388 0.502622959012232 0  244.8903091726418 0.4553565384507763 0  244.9139814234573 0.4057560320869432 0  244.935294130113 0.3538712904094632 0  244.9540111540606 0.2997711092283469 0  244.9698895977127 0.2435450025123902 0  244.9826810461417 0.1853050499957777 0  244.9921330763121 0.1251876946332835 0  244.9979910076399 0.06335573115285377 0  241.0645161290323 0 0  241.1290322580645 0 0  241.1935483870968 0 0  241.258064516129 0 0  241.3225806451613 0 0  241.3870967741935 0 0  241.4516129032258 0 0  241.5161290322581 0 0  241.5806451612903 0 0  241.6451612903226 0 0  241.7096774193548 0 0  241.7741935483871 0 0  241.8387096774194 0 0  241.9032258064516 0 0  241.9677419354839 0 0  242.0322580645161 0 0  242.0967741935484 0 0  242.1612903225806 0 0  242.2258064516129 0 0  242.2903225806452 0 0  242.3548387096774 0 0  242.4193548387097 0 0  242.4838709677419 0 0  242.5483870967742 0 0  242.6129032258065 0 0  242.6774193548387 0 0  242.741935483871 0 0  242.8064516129032 0 0  242.8709677419355 0 0  242.9354838709677 0 0  253.0020089923861 0.063355731562034 0  253.0078669237896 0.1251876954392177 0  253.0173189540956 0.1853050512541301 0  253.0301104026608 0.243545003999721 0  253.0459888465302 0.2997711111084815 0  253.0647058707711 0.3538712927462628 0  253.0860185776573 0.4057560345977113 0  253.1096908286717 0.4553565410189064 0  253.1354942695903 0.5026229621582694 0  253.1632091334853 0.5475226440227238 0  253.1926249250355 0.5900385481695689 0  253.2235407638306 0.6301674813628185 0  253.2557657849086 0.6679187323973781 0  253.2891195163637 0.7033128308121627 0  253.3234314721495 0.736379675929636 0  253.3585416405058 0.7671578540528868 0  253.3943001347868 0.7956932029876407 0  253.4305670884679 0.8220378089017952 0  253.4672124255662 0.8462490180372396 0  253.5041156045838 0.8683885457459335 0  253.5411652540955 0.8885
[...]
<PointData  Scalars="foodini"> 
<DataArray  type="Float64"  Name="foodini"  format="ascii">0.0000000000000000e+00  0.0000000000000000e+00  0.0000000000000000e+00  0.0000000000000000e+00  0.0000000000000000e+00  0.0000000000000000e+00  0.0000000000000000e+00  3.9789790872115510e-02  4.6188115913134216e-02  0.0000000000000000e+00  0.0000000000000000e+00  0.0000000000000000e+00  3.7869113039728279e-02  8.4894943324619013e-02  0.0000000000000000e+00  0.0000000000000000e+00  0.0000000000000000e+00  2.8661968870915364e-02  1.0000000000000002e+00  1.0000000000000000e+00  1.0000000000000000e+00  1.0000000000000000e+00  0.0000000000000000e+00  0.0000000000000000e+00  0.0000000000000000e+00  0.0000000000000000e+00  0.0000000000000000e+00  0.0000000000000000e+00  0.0000000000000000e+00  0.0000000000000000e+00  0.0000000000000000e+00  0.0000000000000000e+00  0.0000000000000000e+00  0.0000000000000000e+00  0.0000000000000000e+00  0.0000000000000000e+00  0.0000000000000000e+00  0.0000000000000000e+00  0.0000000000000000e+00  0.0000000000000000e+00  0.0000000000000000e+00  0.0000000000000000e+00  0.0000000000000000e+00  0.0000000000000000e+00  0.0000000000000000e+00  0.0000000000000000e+00  0.0000000000000000e+00  0.0000000000000000e+00  0.0000000000000000e+00  0.0000000000000000e+00  0.0000000000000000e+00  0.0000000000000000e+00  0.0000000000000000e+00  0.0000000000000000e+00  0.0000000000000000e+00  0.0000000000000000e+00  0.0000000000000000e+00  0.0000000000000000e+00  0.0000000000000000e+00  0.0000000000000000e+00  0.0000000000000000e+00  0.0000000000000000e+00  0.0000000000000000e+00  0.0000000000000000e+00  0.0000000000000000e+00  0.0000000000000000e+00  0.0000000000000000e+00  0.0000000000000000e+00  0.0000000000000000e+00  0.0000000000000000e+00  0.0000000000000000e+00  0.0000000000000000e+00  0.0000000000000000e+00  0.0000000000000000e+00  0.0000000000000000e+00  0.0000000000000000e+00  0.0000000000000000e+00  0.0000000000000000e+00  0.0000000000000000e+00  0.0000000000000000e+00  0.0000000000000000e+00  0.0000000000000000e+00  0.0000000000000000e+00  0.0000000000000000e+00  0.0000000000000000e+00  0.0000000000000000e+00  0.0000000000000000e+00  0.0000000000000000e+00  0.0000000000000000e+00  0.0000000000000000e+00  0.0000000000000000e+00  0.0000000000000000e+00  0.0000000000000000e+00  0.0000000000000000e+00  0.0000000000000000e+00  0.0000000000000000e+00  0.0000000000000000e+00  0.0000000000000000e+00  0.0000000000000000e+00  0.0000000000000000e+00  0.0000000000000000e+00  0.0000000000000000e+00  0.0000000000000000e+00  0.0000000000000000e+00  0.0000000000000000e+00  0.0000000000000000e+00  0.0000000000000000e+00  0.0000000000000000e+00  0.0000000000000000e+00  0.0000000000000000e+00  0.0000000000000000e+00  0.0000000000000000e+00  0.0000000000000000e+00  0.0000000000000000e+00  0.0000000000000000e+00  0.0000000000000000e+00  0.0000000000000000e+00  0.0000000000000000e+00  0.0000000000000000e+00  0.0000000000000000e+00  0.0000000000000000e+00  0.0000000000000000e+00  0.0000000000000000e+00  0.0000000000000000e+00  0.0000000000000000e+00  0.0000000000000000e+00  0.0000000000000000e+00  0.0000000000000000e+00  0.0000000000000000e+00  0.0000000000000000e+00  0.0000000000000000e+00  0.0000000000000000e+00  0.0000000000000000e+00  0.0000000000000000e+00  0.0000000000000000e+00  0.0000000000000000e+00  0.0000000000000000e+00  0.0000000000000000e+00  0.0000000000000000e+00  0.0000000000000000e+00  3.3064262725791380e-03  6.5077351042781258e-03  9.7324801147180718e-03  1.3078423765407257e-02  1.6627199793465320e-02  2.0453140930917678e-02  2.4629360924474940e-02  2.9232396378054883e-02  3.4345619464749469e-02  4.0065730023935674e-02  4.6503799114859426e-02  5.3793876614450002e-02  6.2096811805213072e-02  7.1611806607332684e-02  8.2588660784575010e-02  9.5339255416641344e-02  1.1027081579829527e-01  1.2789260901188909e-01  1.4890325927540402e-01  1.7420402702842433e-01  2.0502391914761406e-01  2.4298381177217623e-01  2.9022071333782046e-01  3.4957739440784957e-01  4.2391926707712790e-01  5.1492802309458174e-01  6.1835687244287629e-01  7.1652162463071822e-01  7.7681573691091987e-01  7.7664809602812013e-01  7.2746761472772470e-01  6.5839033201452812e-01  5.8955605894684415e-01  5.2907994707284256e-01  4.7825920324821319e-01  4.3605311006764058e-01  4.0091513860107275e-01  3.7140312286465144e-01  3.4633374839215442e-01  3.2477192689357398e-01  3.0599754991875788e-01  2.8944460214674561e-01  2.7467340900049136e-01  2.6133537789148120e-01  2.4915121915108057e-01  2.3789468073123368e-01  2.2738094660909147e-01  2.1745461807142272e-01  2.0798580842293821e-01  1.9886191744013151e-01  1.8998563094889712e-01  1.8127123850094234e-01  1.7264197658653510e-01  1.6402821643315874e-01  1.5536584084232138e-01  1.4659529658700385e-01  1.3766022618604801e-01  1.2850710724911621e-01  1.1908473663546411e-01  1.0934445942335420e-01  9.9238643223326109e-02  8.8720774682263706e-02  7.7747053394958174e-02  6.6274495413163173e-02  5.4262532510519879e-02  4.1670896135385611e-02  2.8464984387443049e-02  1.4607862389456020e-02  0.0000000000000000e+00  0.0000000000000000e+00  0.0000000000000000e+00  0.0000000000000000e+00  0.0000000000000000e+00  0.0000000000000000e+00  0.0000000000000000e+00  0.0000000000000000e+00  0.0000000000000000e+00  0.0000000000000000e+00  0.0000000000000000e+00  0.0000000000000000e+00  0.0000000000000000e+00  0.0000000000000000e+00  0.0000000000000000e+00  0.0000000000000000e+00  0.0000000000000000e+00  0.0000000000000000e+00  0.0000000000000000e+00  0.0000000000000000e+00  0.0000000000000000e+00  0.0000000000000000e+00  0.0000000000000000e+00  0.0000000000000000e+00  0.0000000000000000e+00  0.0000000000000000e+00  0.0000000000000000e+00  0.0000000000000000e+00  0.0000000000000000e+00  0.0000000000000000e+00  0.0000000000000000e+00  0.0000000000000000e+00  0.0000000000000000e+00  0.0000000000000000e+00  0.0000000000000000e+00  0.0000000000000000e+00  0.0000000000000000e+00  0.0000000000000000e+00  0.0000000000000000e+00  0.0000000000000000e+00  0.0000000000000000e+00  0.0000000000000000e+00  0.0000000000000000e+00  0.0000000000000000e+00  0.0000000000000000e+00  0.0000000000000000e+00  0.0000000000000000e+00  0.0000000000000000e+00  0.0000000000000000e+00  0.0000000000000000e+00  0.0000000000000000e+00  0.0000000000000000e+00  0.0000000000000000e+00  0.0000000000000000e+00  0.0000000000000000e+00  0.0000000000000000e+00  0.0000000000000000e+00  0.0000000000000000e+00  0.0000000000000000e+00  0.0000000000000000e+00  0.0000000000000000e+00  0.0000000000000000e+00  0.0000000000000000e+00  0.0000000000000000e+00  0.0000000000000000e+00  0.0000000000000000e+00  6.6021524737522527e-03  1.2369856488127173e-02  1.7428032191590948e-02  2.1855605154305815e-02  2.5718674396663178e-02  2.9073845684781212e-02  3.1968749356573019e-02  3.4443853383516777e-02  3.6532630366532995e-02  3.8263485010484731e-02  3.9659366096631621e-02  4.0738651538639606e-02  4.1516561771854255e-02  4.2004298427031378e-02  4.2209818746517150e-02  4.2138015967875843e-02  4.1790641814717505e-02  4.1166421623844748e-02  4.0260968868728195e-02  3.9066617607402161e-02  3.7572258450874085e-02  3.5762830040418192e-02  3.3619151123959495e-02  3.1116758525414675e-02  2.8225812779711233e-02  2.4909787398462158e-02  2.1124265538293361e-02  1.6815906280608216e-02  1.1918696509224710e-02  6.3560112116582195e-03  0.0000000000000000e+00  0.0000000000000000e+00  0.0000000000000000e+00  0.0000000000000000e+00  0.0000000000000000e+00  0.0000000000000000e+00  0.0000000000000000e+00  0.0000000000000000e+00  0.0000000000000000e+00  0.0000000000000000e+00  0.0000000000000000e+00  0.0000000000000000e+00  0.0000000000000000e+00  0.0000000000000000e+00  0.0000000000000000e+00  0.0000000000000000e+00  0.0000000000000000e+00  0.0000000000000000e+00  0.0000000000000000e+00  0.0000000000000000e+00  0.0000000000000000e+00  0.0000000000000000e+00  0.0000000000000000e+00  0.0000000000000000e+00  0.0000000000000000e+00  0.0000000000000000e+00  0.0000000000000000e+00  0.0000000000000000e+00  0.0000000000000000e+00  0.0000000000000000e+00  0.0000000000000000e+00  0.0000000000000000e+00  0.0000000000000000e+00  0.0000000000000000e+00  0.0000000000000000e+00  0.0000000000000000e+00  0.0000000000000000e+00  0.0000000000000000e+00  0.0000000000000000e+00  0.0000000000000000e+00  0.0000000000000000e+00  0.0000000000000000e+00  0.0000000000000000e+00  0.0000000000000000e+00  0.0000000000000000e+00  0.0000000000000000e+00  0.0000000000000000e+00  0.0000000000000000e+00  0.0000000000000000e+00  0.0000000000000000e+00  0.0000000000000000e+00  0.0000000000000000e+00  0.0000000000000000e+00  0.0000000000000000e+00  0.0000000000000000e+00  0.0000000000000000e+00  0.0000000000000000e+00  0.0000000000000000e+00  0.0000000000000000e+00  0.0000000000000000e+00  0.0000000000000000e+00  0.0000000000000000e+00  0.0000000000000000e+00  0.0000000000000000e+00  0.0000000000000000e+00  0.0000000000000000e+00  7.7124584576432568e-03  1.4497720979763658e-02  2.0534054171820301e-02  2.5934919501557012e-02  3.0790810104936596e-02  3.5176212601971152e-02  3.9152243261262369e-02  4.2770155295254082e-02  4.6072574141648795e-02  4.9095434064246414e-02  5.1870408462074247e-02  5.4422846435573068e-02  5.6775998182633229e-02  5.8949328971075514e-02  6.0960172044569688e-02  6.2823481050865632e-02  6.4552400530323545e-02  6.6158499246676147e-02  6.7652034864947072e-02  6.9042135656001549e-02  7.0336940743986998e-02  7.1543640726175431e-02  7.2668818997688983e-02  7.3718327593805658e-02  7.4697510116296453e-02  7.5611065949354461e-02  7.6463390297698303e-02  7.7258336768726649e-02  7.7999520256633245e-02  7.8690170278903612e-02  7.9333273349120534e-02  7.9931581464381993e-02  8.0487581620040979e-02  8.1003535583555442e-02  8.1481552689908046e-02  8.1923611784537720e-02  8.2331404690981769e-02  8.2706629865511749e-02  8.3050785420279216e-02  8.3365278445374752e-02  8.3651401150135904e-02  8.3910321938557506e-02  8.4143156330490909e-02  8.4350910068243301e-02  8.4534525005353744e-02  8.4694869538864445e-02  8.4832754962999316e-02  8.4948903531740047e-02  8.5044000007547554e-02  8.5118672191652658e-02  8.5173481546948718e-02  8.5208952839841645e-02  8.5225573230128845e-02  8.5223764941379260e-02  8.5203934887747981e-02  8.5166411610615708e-02  8.5111521858874425e-02  8.5039538173848433e-02  8.4950703919698251e-02  8.4845214859766191e-02  8.4723247329874615e-02  8.4584933526842876e-02  8.4430381231081514e-02  8.4259656569826716e-02  8.4072797220747827e-02  8.3869806582403172e-02  8.3650653908381209e-02  8.3415276617646042e-02  8.3163573110253658e-02  8.2895412585872019e-02  8.2610631037859469e-02  8.2309020281620918e-02  8.1990334542047003e-02  8.1654293137940273e-02  8.1300574067645001e-02  8.0928799945194418e-02  8.0538561604669309e-02  8.0129396812063325e-02  7.9700781512390101e-02  7.9252142683280652e-02  7.8782863202024281e-02  7.8292229504092897e-02  7.7779510159565149e-02  7.7243830279039499e-02  7.6684306689756440e-02  7.6099913976445402e-02  7.5489570673535927e-02  7.4852075855169398e-02  7.4186118871208614e-02  7.3490260223015483e-02  7.2762919711660781e-02  7.2002392757509512e-02  7.1206779116394697e-02  7.0374010608470178e-02  6.9501812688505721e-02  6.8587669389095468e-02  6.7628833948473535e-02  6.6622261171311148e-02  6.5564568630691669e-02  6.4452014000196192e-02  6.3280455441499184e-02  6.2045285670753361e-02  6.0741347932981075e-02  5.9362841824207153e-02  5.7903290971353494e-02  5.6355479684879882e-02  5.4710855273381147e-02  5.2960494147685652e-02  5.1093473584287175e-02  4.9097705601509396e-02  4.6959280119177445e-02  4.4661981413373360e-02  4.2187117950806596e-02  3.9512917085924054e-02  3.6613921454497128e-02  3.3459912642641851e-02  3.0014898152448181e-02  2.6235790146551006e-02  2.2071244904978481e-02  1.7456605976068237e-02  1.2315114936668061e-02  6.5487431655993390e-03  6.1304278716044734e-03  1.2029727014576384e-02  1.7704450034961506e-02  2.3136808119956678e-02  2.8310462235861766e-02  3.3212289412455222e-02  3.7833470224980868e-02  4.2167508624323877e-02  4.6209362805372030e-02  4.9958598800778277e-02  5.3415405674524762e-02  5.6581361437904237e-02  5.9458965370485964e-02  6.2053813001263475e-02  6.4369455104126352e-02  6.6410738798817245e-02  6.8183977839511231e-02  6.9693947892640704e-02  7.0945449729575019e-02  7.1942971817571838e-02  7.2691208563998896e-02  7.3193975310495568e-02  7.3455343358366690e-02  7.3478431819620660e-02  7.3266835555260354e-02  7.2824027796809410e-02  7.2153604175469219e-02  7.1260407074990845e-02  7.0149048689423801e-02  6.8825641979283592e-02  6.7297447443574063e-02  6.5572708428977333e-02  6.3661759360492301e-02  6.1575675758367920e-02  5.9327815818971036e-02  5.6932822486033062e-02  5.4406686347877369e-02  5.1766756857372469e-02  4.9031456763470066e-02  4.6219792745299658e-02  4.3351116958459980e-02  4.0444913919662769e-02  3.7519585138597204e-02  3.4593565216190954e-02  3.1683414189110713e-02  2.8803907929057709e-02  2.5968090945365223e-02  2.3185428765601371e-02  2.0463958941029377e-02  1.7806866251794035e-02  1.5213428028275407e-02  1.2677806368193961e-02  1.0187230320999668e-02  7.7199257883386191e-03  5.2411245883976021e-03  2.6961196684626961e-03  1.0000000000000000e+00  1.0000000000000002e+00  1.0000000000000000e+00  1.0000000000000000e+00  1.0000000000000000e+00  9.9999999999999989e-01  9.9999999999999989e-01  1.0000000000000000e+00  1.0000000000000000e+00  1.0000000000000000e+00  1.0000000000000000e+00  1.0000000000000000e+00  1.0000000000000000e+00  9.9999999999999989e-01  1.0000000000000000e+00  9.9999999999999989e-01  9.9999999999999989e-01  1.0000000000000002e+00  9.9999999999999989e-01  1.0000000000000000e+00  1.0000000000000000e+00  1.0000000000000000e+00  1.0000000000000000e+00  1.0000000000000002e+00  9.9999999999999989e-01  1.0000000000000000e+00  1.0000000000000000e+00  1.0000000000000000e+00  1.0000000000000002e+00  1.0000000000000000e+00  1.0000000000000000e+00  1.0000000000000000e+00  1.0000000000000000e+00  1.0000000000000000e+00  9.9999999999999989e-01  9.9999999999999989e-01  9.9999999999999989e-01  1.0000000000000000e+00  1.0000000000000002e+00  1.0000000000000000e+00  9.9999999999999989e-01  9.9999999999999989e-01  1.0000000000000000e+00  1.0000000000000000e+00  1.0000000000000002e+00  9.9999999999999989e-01  1.0000000000000000e+00  9.9999999999999989e-01  1.0000000000000000e+00  1.0000000000000000e+00  9.9999999999999989e-01  9.9999999999999989e-01  9.9999999999999989e-01  1.0000000000000000e+00  1.0000000000000000e+00  1.0000000000000000e+00  1.0000000000000000e+00  1.0000000000000000e+00  1.0000000000000000e+00  9.9999999999999989e-01  1.0000000000000000e+00  1.0000000000000000e+00  9.9999999999999989e-01  1.0000000000000000e+00  1.0000000000000000e+00  1.0000000000000000e+00  9.9999999999999989e-01  1.0000000000000000e+00  9.9999999999999989e-01  1.0000000000000000e+00  1.0000000000000000e+00  1.0000000000000000e+00  9.9999999999999989e-01  1.0000000000000000e+00  9.9999999999999978e-01  1.0000000000000000e+00  9.9999999999999989e-01  1.0000000000000000e+00  1.0000000000000000e+00  1.0000000000000000e+00  1.0000000000000000e+00  1.0000000000000000e+00  1.0000000000000000e+00  9.9999999999999989e-01  9.9999999999999989e-01  1.0000000000000000e+00  9.9999999999999989e-01  1.0000000000000000e+00  1.0000000000000000e+00  1.0000000000000000e+00  1.0000000000000002e+00  1.0000000000000000e+00  1.0000000000000000e+00  1.0000000000000000e+00  1.0000000000000000e+00  1.0000000000000000e+00  9.9999999999999989e-01  1.0000000000000000e+00  1.0000000000000000e+00  9.9999999999999978e-01  1.0000000000000000e+00  9.9999999999999989e-01  9.9999999999999989e-01  1.0000000000000000e+00  1.0000000000000002e+00  1.0000000000000002e+00  9.9999999999999989e-01  1.0000000000000000e+00  1.0000000000000000e+00  1.0000000000000002e+00  1.0000000000000000e+00  1.0000000000000000e+00  1.0000000000000002e+00  9.9999999999999989e-01  9.9999999999999989e-01  1.0000000000000000e+00  1.0000000000000000e+00  1.0000000000000000e+00  1.0000000000000000e+00  1.0000000000000000e+00  1.0000000000000000e+00  1.0000000000000000e+00  1.0000000000000000e+00  1.0000000000000000e+00  1.0000000000000000e+00  9.9999999999999989e-01  1.0000000000000000e+00  1.0000000000000000e+00  1.0000000000000000e+00  1.0000000000000000e+00  1.0000000000000000e+00  1.0000000000000002e+00  1.0000000000000000e+00  9.9999999999999989e-01  1.0000000000000000e+00  1.0000000000000000e+00  1.0000000000000000e+00  1.0000000000000000e+00  1.0000000000000000e+00  1.0000000000000000e+00  1.0000000000000000e+00  1.0000000000000000e+00  1.0000000000000000e+00  9.9999999999999978e-01  1.0000000000000002e+00  1.0000000000000000e+00  1.0000000000000000e+00  1.0000000000000000e+00  1.0000000000000000e+00  1.0000000000000000e+00  1.0000000000000000e+00  1.0000000000000000e+00  1.0000000000000000e+00  1.0000000000000000e+00  1.0000000000000000e+00  9.9999999999999989e-01  1.0000000000000000e+00  1.0000000000000000e+00  1.0000000000000000e+00  9.9999999999999989e-01  9.9999999999999989e-01  9.9999999999999989e-01  1.0000000000000000e+00  1.0000000000000000e+00  1.0000000000000000e+00  1.0000000000000000e+00  1.0000000000000000e+00  1.0000000000000002e+00  1.0000000000000002e+00  1.0000000000000000e+00  1.0000000000000000e+00  1.0000000000000002e+00  1.0000000000000000e+00  9.9999999999999989e-01  9.9999999999999989e-01  1.0000000000000000e+00  1.0000000000000000e+00  1.0000000000000000e+00  9.9999999999999989e-01  1.0000000000000000e+00  9.9999999999999989e-01  1.0000000000000000e+00  1.0000000000000000e+00  1.0000000000000000e+00  1.0000000000000000e+00  1.0000000000000000e+00  9.9999999999999989e-01  9.9999999999999989e-01  1.0000000000000000e+00  9.9999999999999989e-01  9.9999999999999989e-01  1.0000000000000002e+00  6.4783465072156723e-02  7.1615860052425040e-02  2.5495966944450077e-01  7.3430066656268653e-02  6.2682077923794835e-02  4.7625362130914138e-02  1.0237293259778725e-01  7.6935290306446621e-02  1.8506923132281489e-01  5.2065199161278761e-02  3.5549065879620795e-01  8.1743045625846014e-02  7.7545381679069145e-02  7.2000919155164017e-02  8.3788706742899968e-02  7.9911538927763995e-02  3.2939147357880401e-02  4.4090493199441406e-03  1.4203123180140326e-01  4.9570051293368798e-02  7.0431880100304003e-02  1.1813024470104651e-02  2.2063499411742277e-01  6.5393037874973414e-02  8.4796555062397888e-02  4.1036712696394820e-02  2.1597777550180487e-02  9.4025595057617482e-04  2.6679151831267615e-02  7.0735225898296450e-02  6.4678222355157326e-03  1.0485053237585158e-01  6.3419035065289217e-02  6.7141211768376979e-02  9.4134849868479946e-04  4.4783394572809054e-02  1.3595663592799890e-03  5.5531947200113202e-02  4.8850816382247104e-03  7.4528206361118954e-02  1.3606250958426004e-03  8.1491550188881073e-02  8.5156670082888283e-02  1.0501257004614734e-02  3.9503653396623702e-03  3.0658360658137544e-02  5.7221293117845021e-03  2.9773735529559406e-02  5.2753942339180751e-03  4.9846459045844299e-01  4.5313266450530991e-03  5.1372993255126946e-03  2.9672452231884167e-01  1.3909177690398960e-02  5.8163072627345019e-02  2.1283479405933056e-01  3.8556326696933768e-01  2.8120583111355676e-02  6.8146641843601309e-04  7.3047547826449871e-02  7.2679013375211432e-02  6.3988873821640209e-04  5.7158140921828582e-02  3.0859705165177841e-02  4.4393749798518053e-02  5.5165392786174106e-02  3.6905979324460998e-02  3.7325210030606529e-02  3.3294594633439263e-02  2.0709745708176676e-03  7.9664271703491760e-02  7.5174085392512607e-02  8.2876904048271888e-02  7.1549980871466086e-04  7.8570898240905643e-02  8.2465119511645951e-02  8.5230484367743040e-02  8.3311331421436055e-02  1.7740394486141012e-03  7.7010944596661297e-04  4.8784038052429504e-03  5.4290095501589716e-03  1.4694122405943389e-02  5.1743905053291623e-03  1.0464611284075134e-02  4.8436748735626962e-03  6.1149412572541473e-03  5.4991892892606886e-01  6.9858751507250438e-01  3.93816312290