<?xml version="1.0"?>
<VTKFile type="UnstructuredGrid"  version="0.1"  >
<UnstructuredGrid>
<Piece  NumberOfPoints="7979" NumberOfCells="15285">
<Points>
<DataArray  type="Float64"  NumberOfComponents="3"  format="ascii">0 0 0  450 0 0  450 225 0  0 225 0  224 0 0  226 0 0  225 1 0  226 1 0  230 0.5 0  234 0 0  236 0 0  235 1 0  236 1 0  237 0.5 0  238 0 0  240 0 0  239 1 0  240 1 0  450 9.782608695661354 0  450 19.56521739132493 0  450 29.34782608698428 0  450 39.13043478263055 0  450 48.91304347827662 0  450 58.69565217392267 0  450 68.47826086956874 0  450 78.26086956521479 0  450 88.04347826086087 0  450 97.82608695650693 0  450 107.608695652153 0  450 117.3913043478299 0  450 127.1739130435357 0  450 136.9565217391855 0  450 146.7391304348315 0  450 156.5217391304776 0  450 166.3043478261236 0  450 176.0869565217697 0  450 185.8695652174157 0  450 195.6521739130618 0  450 205.4347826087078 0  450 215.2173913043539 0  440.217391304352 225 0  430.4347826087039 225 0  420.6521739130558 225 0  410.8695652174077 225 0  401.0869565217596 225 0  391.3043478261116 225 0  381.5217391304635 225 0  371.7391304348154 225 0  361.9565217391673 225 0  352.1739130435193 225 0  342.3913043478713 225 0  332.6086956522231 225 0  322.8260869565751 225 0  313.043478260927 225 0  303.2608695652789 225 0  293.4782608696308 225 0  283.6956521739828 225 0  273.9130434783347 225 0  264.1304347826866 225 0  254.3478260870386 225 0  244.5652173913905 225 0  234.7826086957424 225 0  225.0000000000888 225 0  215.2173913043845 225 0  205.4347826086747 225 0  195.6521739129687 225 0  185.8695652173134 225 0  176.0869565216654 225 0  166.3043478260173 225 0  156.5217391303692 225 0  146.7391304347212 225 0  136.956521739073 225 0  127.173913043425 225 0  117.3913043477769 225 0  107.6086956521288 225 0  97.82608695648076 225 0  88.04347826083261 225 0  78.26086956518463 225 0  68.47826086953654 225 0  58.69565217388845 225 0  48.91304347824035 225 0  39.13043478259226 225 0  29.34782608694422 225 0  19.56521739129619 225 0  9.782608695648094 225 0  0 215.2173913043519 0  0 205.4347826087039 0  0 195.6521739130558 0  0 185.8695652174077 0  0 176.0869565217596 0  0 166.3043478261116 0  0 156.5217391304635 0  0 146.7391304348154 0  0 136.9565217391674 0  0 127.1739130435193 0  0 117.3913043478712 0  0 107.6086956521923 0  0 97.82608695648437 0  0 88.0434782608327 0  0 78.26086956518458 0  0 68.47826086953651 0  0 58.69565217388845 0  0 48.91304347824038 0  0 39.13043478259232 0  0 29.34782608694422 0  0 19.56521739129613 0  0 9.782608695648094 0  224.0020089923861 0.063355731562034 0  224.0078669237896 0.1251876954392177 0  224.0173189540956 0.1853050512541301 0  224.0301104026608 0.243545003999721 0  224.0459888465302 0.2997711111084815 0  224.0647058707711 0.3538712927462628 0  224.0860185776573 0.4057560345977113 0  224.1096908286717 0.4553565410189064 0  224.1354942695903 0.5026229621582694 0  224.1632091334853 0.5475226440227238 0  224.1926249250355 0.5900385481695689 0  224.2235407638306 0.6301674813628185 0  224.2557657849086 0.6679187323973781 0  224.2891195163637 0.7033128308121627 0  224.3234314721495 0.736379675929636 0  224.3585416405058 0.7671578540528868 0  224.3943001347868 0.7956932029876407 0  224.4305670884679 0.8220378089017952 0  224.4672124255662 0.8462490180372396 0  224.5041156045838 0.8683885457459335 0  224.5411652540955 0.8885216237947197 0  224.5782590182344 0.9067163527252478 0  224.6153028595457 0.9230428538948069 0  224.6522110523273 0.9375728493705031 0  224.6889055603574 0.9503790031474065 0  224.72531568381 0.961534464509318 0  224.7613777251139 0.9711124599798758 0  224.7970345748618 0.9791859048201496 0  224.8322353596756 0.9858270768531486 0  224.8669348413503 0.9911072916458271 0  224.9010933583037 0.9950967170221953 0  224.9346762707545 0.997864124216049 0  224.9676536620218 0.9994767202988784 0  225.0323463381051 0.99947672029477 0  225.0653237301236 0.9978641241585631 0  225.0989066431223 0.9950967168804671 0  225.1330651602428 0.9911072914319439 0  225.1677646419726 0.9858270765726634 0  225.2029654269951 0.979185904435247 0  225.2386222604036 0.9711124635385281 0  225.2746843192525 0.9615344636344383 0  225.3110944429274 0.9503790020721721 0  225.3477889498758 0.9375728485532481 0  225.3846971416895 0.9230428533800188 0  225.4217409837351 0.9067163518091972 0  225.4588347483695 0.888521622521743 0  225.4958843983252 0.8683885440847672 0  225.5327875773925 0.846249016174439 0  225.5694329140487 0.8220378071585059 0  225.6056998679296 0.7956932009198679 0  225.641458362852 0.7671578512452597 0  225.6765685310523 0.736379672987914 0  225.7108804867128 0.7033128277025616 0  225.7442342180933 0.6679187290524371 0  225.7764592391041 0.6301674777468723 0  225.8073750777669 0.5900385443348745 0  225.8367908685816 0.5475226408638091 0  225.8645057322388 0.502622959012232 0  225.8903091726418 0.4553565384507763 0  225.9139814234573 0.4057560320869432 0  225.935294130113 0.3538712904094632 0  225.9540111540606 0.2997711092283469 0  225.9698895977127 0.2435450025123902 0  225.9826810461417 0.1853050499957777 0  225.9921330763121 0.1251876946332835 0  225.9979910076399 0.06335573115285377 0  9.724657309557664 0 0  19.02990561489478 0 0  27.93382974437208 0 0  36.4537404975454 0 0  44.60620016225933 0 0  52.40705568240647 0 0  59.87147154317288 0 0  67.01395653385165 0 0  73.84839875777189 0 0  80.38807968606275 0 0  86.64571284056197 0 0  92.63346328245085 0 0  98.36297046378698 0 0  103.8453721348713 0 0  109.0913252627834 0 0  114.1110282135623 0 0  118.914238357087 0 0  123.5102929000238 0 0  127.9081253730336 0 0  132.1162857391113 0 0  136.1429549088198 0 0  139.9959585537756 0 0  143.6827874356201 0 0  147.2106089691988 0 0  150.5862812955824 0 0  153.8163648770172 0 0  156.9071395455719 0 0  159.8646136931983 0 0  162.6945358741549 0 0  165.4024075759797 0 0  167.9934921069113 0 0  170.4728273952023 0 0  172.8452319994138 0 0  175.1153183143408 0 0  177.2874990632585 0 0  179.3659966326073 0 0  181.3548516892633 0 0  183.2579303976732 0 0  185.0789313485823 0 0  186.8213956698771 0 0  188.4887097667209 0 0  190.0841148690362 0 0  191.6107125473505 0 0  193.0714699966116 0 0  194.4692272649741 0 0  195.8067009978392 0 0  197.0864915810537 0 0  198.3110864738335 0 0  199.482866160831 0 0  200.6041087807559 0 0  201.6769937811462 0 0  202.7036067754679 0 0  203.6859433789877 0 0  204.6259132873555 0 0  205.5253433791829 0 0  206.3859826682087 0 0  207.2095035890445 0 0  207.997507257115 0 0  208.7515253637376 0 0  209.4730237734672 0 0  210.1634049499469 0 0  210.8240109907306 0 0  211.4561260143591 0 0  212.060978785667 0 0  212.6397450141027 0 0  213.1935499460044 0 0  213.7234700471982 0 0  214.2305354641678 0 0  214.7157318316905 0 0  215.1800023503719 0 0  215.6242495509076 0 0  216.0493371210115 0 0  216.4560911509623 0 0  216.845302440869 0 0  217.21772760454 0 0  217.5740906239334 0 0  217.9150841433838 0 0  218.241371125184 0 0  218.5535858412163 0 0  218.8523351331747 0 0  219.1381997902312 0 0  219.4117355022302 0 0  219.6734739944899 0 0  219.9239241281105 0 0  220.1635726506841 0 0  220.3928854518087 0 0  220.61230834362 0 0  220.8222678864888 0 0  221.0231721146276 0 0  221.2154116317471 0 0  221.3993601212488 0 0  221.5753751763791 0 0  221.7437989502984 0 0  221.9049588503808 0 0  222.0591681367364 0 0  222.2067265977104 0 0  222.3479210690713 0 0  222.4830260263524 0 0  222.6123041189778 0 0  222.7360065812347 0 0  222.8543739478548 0 0  222.9676363098526 0 0  223.0760138277523 0 0  223.1797171723988 0 0  223.2789479251624 0 0  223.3738989996738 0 0  223.4647549720281 0 0  223.5516924491118 0 0  223.6348804347739 0 0  223.7144806430749 0 0  223.7906478148444 0 0  223.8635299801972 0 0  223.9332688577469 0 0  234.0020089923861 0.063355731562034 0  234.0078669237896 0.1251876954392177 0  234.0173189540956 0.1853050512541301 0  234.0301104026608 0.243545003999721 0  234.0459888465302 0.2997711111084815 0  234.0647058707711 0.3538712927462628 0  234.0860185776573 0.4057560345977113 0  234.1096908286717 0.4553565410189064 0  234.1354942695903 0.5026229621582694 0  234.1632091334853 0.5475226440227238 0  234.1926249250355 0.5900385481695689 0  234.2235407638306 0.6301674813628185 0  234.2557657849086 0.6679187323973781 0  234.2891195163637 0.7033128308121627 0  234.3234314721495 0.736379675929636 0  234.3585416405058 0.7671578540528868 0  234.3943001347868 0.7956932029876407 0  234.4305670884679 0.8220378089017952 0  234.4672124255662 0.8462490180372396 0  234.5041156045838 0.8683885457459335 0  234.5411652540955 0.8885216237947197 0  234.5782590182344 0.9067163527252478 0  234.6153028595457 0.9230428538948069 0  234.6522110523273 0.9375728493705031 0  234.6889055603574 0.9503790031474065 0  234.72531568381 0.961534464509318 0  234.7613777251139 0.9711124599798758 0  234.7970345748618 0.9791859048201496 0  234.8322353596756 0.9858270768531486 0  234.8669348413503 0.9911072916458271 0  234.9010933583037 0.9950967170221953 0  234.9346762707545 0.997864124216049 0  234.9676536620218 0.9994767202988784 0  235.0323463381051 0.99947672029477 0  235.0653237301236 0.9978641241585631 0  235.0989066431223 0.9950967168804671 0  235.1330651602428 0.9911072914319439 0  235.1677646419726 0.9858270765726634 0  235.2029654269951 0.979185904435247 0  235.2386222604036 0.9711124635385281 0  235.2746843192525 0.9615344636344383 0  235.3110944429274 0.9503790020721721 0  235.3477889498758 0.9375728485532481 0  235.3846971416895 0.9230428533800188 0  235.4217409837351 0.9067163518091972 0  235.4588347483695 0.888521622521743 0  235.4958843983252 0.8683885440847672 0  235.5327875773925 0.846249016174439 0  235.5694329140487 0.8220378071585059 0  235.6056998679296 0.7956932009198679 0  235.641458362852 0.7671578512452597 0  235.6765685310523 0.736379672987914 0  235.7108804867128 0.7033128277025616 0  235.7442342180933 0.6679187290524371 0  235.7764592391041 0.6301674777468723 0  235.8073750777669 0.5900385443348745 0 
[...]
<PointData  Scalars="foodini"> 
<DataArray  type="Float64"  Name="foodini"  format="ascii">-1.0000000000000002e+00  1.0000000000000000e+00  9.9999999999999989e-01  -1.0000000000000000e+00  0.0000000000000000e+00  0.0000000000000000e+00  0.0000000000000000e+00  4.2919993405875098e-04  1.1247163521001202e-02  0.0000000000000000e+00  0.0000000000000000e+00  0.0000000000000000e+00  9.9689372549215307e-03  1.3290511071642442e-02  0.0000000000000000e+00  0.0000000000000000e+00  0.0000000000000000e+00  1.9971232749378624e-02  9.9999999999999989e-01  9.9999999999999989e-01  1.0000000000000000e+00  1.0000000000000000e+00  1.0000000000000000e+00  9.9999999999999989e-01  1.0000000000000000e+00  1.0000000000000000e+00  1.0000000000000000e+00  1.0000000000000000e+00  1.0000000000000002e+00  1.0000000000000000e+00  9.9999999999999989e-01  1.0000000000000000e+00  1.0000000000000000e+00  1.0000000000000000e+00  9.9999999999999989e-01  1.0000000000000000e+00  9.9999999999999989e-01  9.9999999999999989e-01  1.0000000000000000e+00  9.9999999999999989e-01  9.5649299844632096e-01  9.1298609002347053e-01  8.6947936993372577e-01  8.2597293437036678e-01  7.8246688513766538e-01  7.3896132804815606e-01  6.9545637474118660e-01  6.5195214373298449e-01  6.0844875964468503e-01  5.6494635424837147e-01  5.2144506552094672e-01  4.7794503619236089e-01  4.3444641251837635e-01  3.9094934174689883e-01  3.4745396943824114e-01  3.0396043573251380e-01  2.6046887262583746e-01  2.1697939753208911e-01  1.7349211212447135e-01  1.3000709695000251e-01  8.6524408966559510e-02  4.3044078812510066e-02  -4.3388997495198624e-04  -4.3909521238549416e-02  -8.7382864526091786e-02  -1.3085399474687498e-01  -1.7432300691926092e-01  -2.1779001385954228e-01  -2.6125514198186089e-01  -3.0471852702700963e-01  -3.4818030981977294e-01  -3.9164063421689066e-01  -4.3509964026688536e-01  -4.7855746771984714e-01  -5.2201424781289230e-01  -5.6547010613446180e-01  -6.0892515962691440e-01  -6.5237951776594449e-01  -6.9583328122189458e-01  -7.3928654331636290e-01  -7.8273938976312252e-01  -8.2619190017246857e-01  -8.6964414838640647e-01  -9.1309620425998106e-01  -9.5654813346097700e-01  -1.0000000000000000e+00  -1.0000000000000000e+00  -1.0000000000000000e+00  -1.0000000000000000e+00  -9.9999999999999989e-01  -1.0000000000000000e+00  -1.0000000000000000e+00  -9.9999999999999989e-01  -9.9999999999999978e-01  -1.0000000000000000e+00  -1.0000000000000000e+00  -1.0000000000000000e+00  -1.0000000000000000e+00  -1.0000000000000000e+00  -9.9999999999999989e-01  -9.9999999999999978e-01  -1.0000000000000000e+00  -1.0000000000000000e+00  -9.9999999999999978e-01  -1.0000000000000000e+00  -1.0000000000000000e+00  -1.0000000000000000e+00  0.0000000000000000e+00  0.0000000000000000e+00  0.0000000000000000e+00  0.0000000000000000e+00  0.0000000000000000e+00  0.0000000000000000e+00  0.0000000000000000e+00  0.0000000000000000e+00  0.0000000000000000e+00  0.0000000000000000e+00  0.0000000000000000e+00  0.0000000000000000e+00  0.0000000000000000e+00  0.0000000000000000e+00  0.0000000000000000e+00  0.0000000000000000e+00  0.0000000000000000e+00  0.0000000000000000e+00  0.0000000000000000e+00  0.0000000000000000e+00  0.0000000000000000e+00  0.0000000000000000e+00  0.0000000000000000e+00  0.0000000000000000e+00  0.0000000000000000e+00  0.0000000000000000e+00  0.0000000000000000e+00  0.0000000000000000e+00  0.0000000000000000e+00  0.0000000000000000e+00  0.0000000000000000e+00  0.0000000000000000e+00  0.0000000000000000e+00  0.0000000000000000e+00  0.0000000000000000e+00  0.0000000000000000e+00  0.0000000000000000e+00  0.0000000000000000e+00  0.0000000000000000e+00  0.0000000000000000e+00  0.0000000000000000e+00  0.0000000000000000e+00  0.0000000000000000e+00  0.0000000000000000e+00  0.0000000000000000e+00  0.0000000000000000e+00  0.0000000000000000e+00  0.0000000000000000e+00  0.0000000000000000e+00  0.0000000000000000e+00  0.0000000000000000e+00  0.0000000000000000e+00  0.0000000000000000e+00  0.0000000000000000e+00  0.0000000000000000e+00  0.0000000000000000e+00  0.0000000000000000e+00  0.0000000000000000e+00  0.0000000000000000e+00  0.0000000000000000e+00  0.0000000000000000e+00  0.0000000000000000e+00  0.0000000000000000e+00  0.0000000000000000e+00  0.0000000000000000e+00  0.0000000000000000e+00  -9.5681493591850775e-01  -9.1549257797070205e-01  -8.7595277614906009e-01  -8.3811878659128414e-01  -8.0191716534842872e-01  -7.6727762738453464e-01  -7.3413290523229158e-01  -7.0241863274293126e-01  -6.7207319244634800e-01  -6.4303765395225709e-01  -6.1525560497272080e-01  -5.8867306289785382e-01  -5.6323837596468951e-01  -5.3890211800634258e-01  -5.1561699503588687e-01  -4.9333774537476760e-01  -4.7202106638747626e-01  -4.5162551664609868e-01  -4.3211144732406098e-01  -4.1344090957564367e-01  -3.9557759194142728e-01  -3.7848675914207286e-01  -3.6213516115272859e-01  -3.4649098154654329e-01  -3.3152377626983881e-01  -3.1720442093760987e-01  -3.0350503500169418e-01  -2.9039894241570829e-01  -2.7786061708426912e-01  -2.6586562918159101e-01  -2.5439060463112712e-01  -2.4341316662813600e-01  -2.3291190970877615e-01  -2.2286634588707488e-01  -2.1325686305700933e-01  -2.0406469576652519e-01  -1.9527188705719672e-01  -1.8686123933166765e-01  -1.7881630808001495e-01  -1.7112133836119292e-01  -1.6376126135975699e-01  -1.5672164541011896e-01  -1.4998867823302353e-01  -1.4354913864583083e-01  -1.3739036628645593e-01  -1.3150024467460261e-01  -1.2586716858867475e-01  -1.2048002872503709e-01  -1.1532818794969350e-01  -1.1040145750507972e-01  -1.0569008161241590e-01  -1.0118471769489186e-01  -9.6876414687660756e-02  -9.2756601714698420e-02  -8.8817067722304424e-02  -8.5049942429087352e-02  -8.1447691215307746e-02  -7.8003089540190335e-02  -7.4709216821535362e-02  -7.1559438683519869e-02  -6.8547396708781488e-02  -6.5666995064272385e-02  -6.2912390012595659e-02  -6.0277976977314553e-02  -5.7758382627758072e-02  -5.5348449918875241e-02  -5.3043234141812494e-02  -5.0837987683606756e-02  -4.8728155861296016e-02  -4.6709368743487231e-02  -4.4777416831479573e-02  -4.2928277503971345e-02  -4.1158063647789990e-02  -3.9463052765975927e-02  -3.7839654927921233e-02  -3.6284420603754128e-02  -3.4794024753369984e-02  -3.3365263356458702e-02  -3.1995049712923281e-02  -3.0680398265794738e-02  -2.9418415344072996e-02  -2.8206321234869096e-02  -2.7041403532262941e-02  -2.5921030742589078e-02  -2.4842653714131378e-02  -2.3803770923669074e-02  -2.2801946155625714e-02  -2.1834785841372245e-02  -2.0899937071854897e-02  -1.9995080980227491e-02  -1.9117904829688791e-02  -1.8266122358266180e-02  -1.7437429553663879e-02  -1.6629520217713450e-02  -1.5840021740465990e-02  -1.5066538584460134e-02  -1.4306631510418354e-02  -1.3557730245379960e-02  -1.2817185308469117e-02  -1.2082183440490713e-02  -1.1349745061886456e-02  -1.0616634100054504e-02  -9.8794577286860901e-03  -9.1344291600613716e-03  -8.3773767459043094e-03  -7.6036699923434231e-03  -6.8081417116371678e-03  -5.9849361896549338e-03  -5.1274230041144751e-03  -4.2278505851994315e-03  -3.2773606529057126e-03  -2.2654629681831710e-03  -1.1798589034865696e-03  0.0000000000000000e+00  0.0000000000000000e+00  0.0000000000000000e+00  0.0000000000000000e+00  0.0000000000000000e+00  0.0000000000000000e+00  0.0000000000000000e+00  0.0000000000000000e+00  0.0000000000000000e+00  0.0000000000000000e+00  0.0000000000000000e+00  0.0000000000000000e+00  0.0000000000000000e+00  0.0000000000000000e+00  0.0000000000000000e+00  0.0000000000000000e+00  0.0000000000000000e+00  0.0000000000000000e+00  0.0000000000000000e+00  0.0000000000000000e+00  0.0000000000000000e+00  0.0000000000000000e+00  0.0000000000000000e+00  0.0000000000000000e+00  0.0000000000000000e+00  0.0000000000000000e+00  0.0000000000000000e+00  0.0000000000000000e+00  0.0000000000000000e+00  0.0000000000000000e+00  0.0000000000000000e+00  0.0000000000000000e+00  0.0000000000000000e+00  0.0000000000000000e+00  0.0000000000000000e+00  0.0000000000000000e+00  0.0000000000000000e+00  0.0000000000000000e+00  0.0000000000000000e+00  0.0000000000000000e+00  0.0000000000000000e+00  0.0000000000000000e+00  0.0000000000000000e+00  0.0000000000000000e+00  0.0000000000000000e+00  0.0000000000000000e+00  0.0000000000000000e+00  0.0000000000000000e+00  0.0000000000000000e+00  0.0000000000000000e+00  0.0000000000000000e+00  0.0000000000000000e+00  0.0000000000000000e+00  0.0000000000000000e+00  0.0000000000000000e+00  0.0000000000000000e+00  0.0000000000000000e+00  0.0000000000000000e+00  0.0000000000000000e+00  0.0000000000000000e+00  0.0000000000000000e+00  0.0000000000000000e+00  0.0000000000000000e+00  0.0000000000000000e+00  0.0000000000000000e+00  0.0000000000000000e+00  2.6407911977760365e-04  5.0105860080373876e-04  7.1984953391730604e-04  9.2579942091653973e-04  1.1227072088966191e-03  1.3133071390919277e-03  1.4995803812508442e-03  1.6829643214478747e-03  1.8645190685515466e-03  2.0449887610770809e-03  2.2249385652028933e-03  2.4047633706286357e-03  2.5847422661823822e-03  2.7650719253548110e-03  2.9458759079075978e-03  3.1272350880472044e-03  3.3091896815927897e-03  3.4917521745180149e-03  3.6749138347501151e-03  3.8586497776890842e-03  4.0429234450431624e-03  4.2276884033409538e-03  4.4128931258123416e-03  4.5984802381160584e-03  4.7843894046287506e-03  4.9705575917645987e-03  5.1569203710821890e-03  5.3434126433639676e-03  5.5299677917461905e-03  5.7165197263994386e-03  5.9030030832979211e-03  6.0893506865033926e-03  6.2754977173857841e-03  6.4613781094617437e-03  6.6469267053131482e-03  6.8320780431047586e-03  7.0167679280159975e-03  7.2009318931534564e-03  7.3845039153204034e-03  7.5674212817063297e-03  7.7496181708465147e-03  7.9310295682769403e-03  8.1115910714041999e-03  8.2912372500223777e-03  8.4698993197845265e-03  8.6475134692723075e-03  8.8240104120857719e-03  8.9993211801598482e-03  9.1733756000767445e-03  9.3461041979666249e-03  9.5174331207751699e-03  9.6872891597744228e-03  9.8555956410836393e-03  1.0022274816012873e-02  1.0187246898585502e-02  1.0350430487272551e-02  1.0511736942641377e-02  1.0671084577694027e-02  1.0828379598037147e-02  1.0983529361052482e-02  1.1136436800880728e-02  1.1287001443058187e-02  1.1435120978915914e-02  1.1580684571196369e-02  1.1723581354326978e-02  1.1863690686725012e-02  1.2000889945649726e-02  1.2135049750906146e-02  1.2266032503604963e-02  1.2393700612965537e-02  1.2517903689469376e-02  1.2638479073821070e-02  1.2755270450441740e-02  1.2868095058458153e-02  1.2976778685861511e-02  1.3081121930378272e-02  1.3180921184052799e-02  1.3275956893417483e-02  1.3366002748391810e-02  1.3450810652337677e-02  1.3530124440111781e-02  1.3603664889318117e-02  1.3671138677848853e-02  1.3732230498262239e-02  1.3786604168089613e-02  1.3833902039575800e-02  1.3873726268771322e-02  1.3905681996987869e-02  1.3929311521745820e-02  1.3944138788338578e-02  1.3949646561937952e-02  1.3945274984614021e-02  1.3930419822034714e-02  1.3904430554735770e-02  1.3866583649653184e-02  1.3816110512042496e-02  1.3752169420743908e-02  1.3673832540177277e-02  1.3580077046973268e-02  1.3469815405414641e-02  1.3341792514699843e-02  1.3194690986961004e-02  1.3026994074242090e-02  1.2837056951697828e-02  1.2623025442887455e-02  1.2382848265787658e-02  1.2114225698369500e-02  1.1814553337973013e-02  1.1480935636571099e-02  1.1110031098205306e-02  1.0698147786379762e-02  1.0240910699144991e-02  9.7334993626382073e-03  9.1701993885866060e-03  8.5444970064070189e-03  7.8486679190200789e-03  7.0738941629765366e-03  6.2095758692109412e-03  5.2432650811139528e-03  4.1598618899690281e-03  2.9417045736587419e-03  1.5666354647761681e-03  0.0000000000000000e+00  0.0000000000000000e+00  0.0000000000000000e+00  0.0000000000000000e+00  0.0000000000000000e+00  0.0000000000000000e+00  0.0000000000000000e+00  0.0000000000000000e+00  0.0000000000000000e+00  0.0000000000000000e+00  0.0000000000000000e+00  0.0000000000000000e+00  0.0000000000000000e+00  0.0000000000000000e+00  0.0000000000000000e+00  0.0000000000000000e+00  0.0000000000000000e+00  0.0000000000000000e+00  0.0000000000000000e+00  0.0000000000000000e+00  0.0000000000000000e+00  0.0000000000000000e+00  0.0000000000000000e+00  0.0000000000000000e+00  0.0000000000000000e+00  0.0000000000000000e+00  0.0000000000000000e+00  0.0000000000000000e+00  0.0000000000000000e+00  0.0000000000000000e+00  0.0000000000000000e+00  0.0000000000000000e+00  0.0000000000000000e+00  0.0000000000000000e+00  0.0000000000000000e+00  0.0000000000000000e+00  0.0000000000000000e+00  0.0000000000000000e+00  0.0000000000000000e+00  0.0000000000000000e+00  0.0000000000000000e+00  0.0000000000000000e+00  0.0000000000000000e+00  0.0000000000000000e+00  0.0000000000000000e+00  0.0000000000000000e+00  0.0000000000000000e+00  0.0000000000000000e+00  0.0000000000000000e+00  0.0000000000000000e+00  0.0000000000000000e+00  0.0000000000000000e+00  0.0000000000000000e+00  0.0000000000000000e+00  0.0000000000000000e+00  0.0000000000000000e+00  0.0000000000000000e+00  0.0000000000000000e+00  0.0000000000000000e+00  0.0000000000000000e+00  0.0000000000000000e+00  0.0000000000000000e+00  0.0000000000000000e+00  0.0000000000000000e+00  0.0000000000000000e+00  0.0000000000000000e+00  1.8049643281064850e-03  3.3858528320568661e-03  4.7790934991380546e-03  6.0073994683121617e-03  7.0891621273780564e-03  8.0395664427980948e-03  8.8710792233652590e-03  9.5938386552288299e-03  1.0216040747979825e-02  1.0744292263085729e-02  1.1183808954686739e-02  1.1538497100693521e-02  1.1811296440515665e-02  1.2004014157208224e-02  1.2117562603488499e-02  1.2151985074296630e-02  1.2106414762307437e-02  1.1979131292767222e-02  1.1767317968017407e-02  1.1467632642384498e-02  1.1075307197012354e-02  1.0584642076885066e-02  9.9886541481971156e-03  9.2789384911943548e-03  8.4453570198140034e-03  7.4760840916730598e-03  6.3571596274467719e-03  5.0720538604173623e-03  3.6014260140029512e-03  1.9227009953203048e-03  4.5371685664762004e-03  8.7082219495809975e-03  1.2575483288858576e-02  1.6176491789331584e-02  1.9540356313233066e-02  2.2695222928074729e-02  2.5664301996095228e-02  2.8467661844329313e-02  3.1124902996319877e-02  3.3651367729431954e-02  3.6061548703301465e-02  3.8369608981357918e-02  4.0585967172483334e-02  4.2722195306977948e-02  4.4787809448664138e-02  4.6791781848657267e-02  4.8742325273234008e-02  5.0647201246460105e-02  5.2513443536835062e-02  5.4347752371006662e-02  5.6156042210757151e-02  5.7944420912033008e-02  5.9718393802606351e-02  6.1483363287171314e-02  6.3244363578583970e-02  6.5006457907528792e-02  6.6774402266067845e-02  6.8552804928357053e-02  7.0346339952034528e-02  7.2159539549185664e-02  7.3996785778508656e-02  7.5862724161155845e-02  7.7761666145565622e-02  7.9698114567236911e-02  8.1676673173783201e-02  8.3701778068749705e-02  8.5778143161792303e-02  8.7910435567555165e-02  9.0103466028515697e-02  9.2362165615268804e-02  9.4691600064001749e-02  9.7096881492653442e-02  9.9583365212230379e-02  1.0215654741373068e-01  1.0482218041696302e-01  1.0758600382320459e-01  1.1045423527470541e-01  1.1343308960702579e-01  1.1652918158434745e-01  1.1974927510453358e-01  1.2310050548751190e-01  1.2659016717716542e-01  1.3022597599775448e-01  1.3401593466331629e-01  1.3796834969101679e-01  1.4209196138574698e-01  1.4639578182881452e-01  1.5088932641685535e-01  1.5558246069805928e-01  1.6048552845687147e-01  1.6560932704663928e-01  1.7096514670713572e-01  1.7656477937429951e-01  1.8242057892329169e-01  1.8854543077264185e-01  1.9495284654454614e-01  2.0165696127282307e-01  2.0867254552121656e-01  2.1601507441271087e-01  2.2370074768907555e-01  2.3174651567867219e-01  2.4017012174442914e-01  2.4899015947268144e-01  2.5822608555586363e-01  2.6789827390579868e-01  2.7802807822198883e-01  2.8863785149408788e-01  2.9975100634192092e-01  3.1139207115029438e-01  3.2358673852092218e-01  3.3636192944507198e-01  3.4974584091365035e-01  3.6376801656559560e-01  3.7845941675378075e-01  3.9385246354837444e-01  4.0998115034051069e-01  4.2688108138839759e-01  4.4458957158190626e-01  4.6314572105951024e-01  4.8259049541952137e-01  5.0296683422138011e-01  5.2431973366567886e-01  5.4669634466433115e-01  5.7014608451267323e-01  5.9472073524352775e-01  6.2047458139576983e-01  6.4746449767734271e-01  6.7575010268481339e-01  7.0539389002528563e-01  7.3646132903291073e-01  7.6902107514131812e-01  8.0314506859743051e-01  8.3890875188380321e-01  8.7639116297001607e-01  9.1567520935301250e-01  9.5684777644074914e-01  -6.7106680553581266e-02  1.2845921058724363e-01  -3.8492834066996669e-02  -1.1286392148796895e-01  1.7887977606658101e-01  9.3711819063319088e-02  -2.5398507124690179e-02  -1.7501153902870076e-01  1.3938955741897102e-02  2.4308175654675540e-01  3.2997605113731282e-01  -2.4861793458025661e-01  -1.7838319590624988e-02  1.3266916818254882e-02  7.5134575041631832e-02  1.3761571996185747e-02  -3.3900666354011699e-01  -1.3191886115436565e-02  4.1834602175437635e-01  -4.9642634768623607e-02  -4.4210079184854295e-01  -8.6982623219212532e-02  1.0926478883638843e-01  1.1670531061921596e-02  6.2389409723180238e-02  6.7305825432341969e-03  5.4377094341350957e-03  4.3272807427413035e-03  7.8393917030486673e-03  1.3322986531330875e-02  1.2071794543462081e-03  -2.1691989195524487e-02  5.1319910300130100e-01  -3.1357975968350937e-02  1.4797107242527327e-01  -7.1182754725805186e-04  -5.5401384699084621e-01  -1.4051634910368946e-01  1.9571746422704764e-01  -2.3839705649327200e-01  4.1278034303259414e-01  -4.5682911539029808e-01  3.3914568516879634e-03  -9.5233744214101110e-03  5.3415657982400146e-02  8.7339151415003428e-03  9.4754970153210355e-03  9.6202890033387378e-01  -9.6361717499645538e-01  6.3372347888008940e-01  1.8790488781277262e-04  -2.1370421998236577e-02  -6.5749888149306446e-01  2.8326023385963789e-01  2.0607028446097672e-01  -2.0875371376415816e-01  8.2597869233058591e-02  1.3722525275755801e-02  1.7378582867110435e-03  2.7238046678131796e-03  5.8625347990791765e-01  1.3919816618446559e-02  2.4946698033885082e-03  4.5862903055429637e-02  1.1631662978537477e-03  -6.3086027625237673e-01  -8.9268258037835985e-04  1.2934375923256955e-02  9.4227168484310453e-03  8.4907202026136396e-03  1.7667712489991142e-03  8.8817743182330218e-03  1.6338650802625602e-03  9.6301360503293287e-01  -9.6241836220682575e-01  1.6540038358621909e-03  1.3829708382185164e-03  9.6231168523260746e-01  -6.3989102823838861e-03  -9.5942694441159715e-01  2.4686859789438909e-02  6.6615625986359639e-03  7.5291739491591803e-01  -1.5292469810042697e-02  -7.5089304875788243e-01  3.7107518042014642e-01  -4.3813067504965685e-02  1.6294825041619226e-01  -3.8729615126180550e-01  -5.6128786041881422e-02  -2.8412898656966112e-01  -9.8966908310382518e-02  -7.6218397834838705e-02  1.1792200586788000e-01  1.0087949654900358e-01  3.2515268693027705e-02  6.7686505268702735e-02  3.9600138502222708e-02  1.2509859058616724e-02  7.6189496409117785e-01  -9.6367535291465001e-01  1.0807428561085176e-02  1.0520291148505839e-02  1.2212080471815585e-03  4.8773994813466259e-03  5.9714995362584664e-03  7.2765450433479846e-03  1.3564684801312782e-02  1.2560396903693406e-02  9.9345655365296482e-03  1.2192533717568147e-02  -7.6094764611327170e-01  9.5774346058269311e-01  1.4283653576034540e-03  1.4849582053081268e-03  -8.9686440825526709e-04  3.5315862318042084e-03  1.2436481270889758e-03  1.8097376032597147e-04  9.6603600511629029e-01  -9.6258031176362457e-01  5.4933271529678217e-03  5.7041326600485876e-03  -3.7823127060673885e-03  1.4425160516581173e-02  1.6280986675901894e-03  1.3087307599565193e-04  3.5391905740288815e-03  8.5707830756973880e-01  -8.5591955750425985e-01  1.9256534517754561e-03  -8.0066962817626989e-03  6.9078036080923322e-01  -1.0950876455670217e-02  5.5766361844814605e-01  -1.9599135766890121e-02  -2.3278032397914605e-02  -6.0044242947023163e-01  -2.7625539054180501e-02  -3.4127274412824760e-02  4.5372160908881382e-01  3.0534581878666922e-01  2.6338755962466492e-01  2.1954423168554685e-01  -4.8267886659724890