<?xml version="1.0"?>
<VTKFile type="UnstructuredGrid"  version="0.1"  >
<UnstructuredGrid>
<Piece  NumberOfPoints="6273" NumberOfCells="11811">
<Points>
<DataArray  type="Float64"  NumberOfComponents="3"  format="ascii">0 0 0  450 0 0  450 300 0  0 300 0  239 0 0  241 0 0  240 1 0  241 1 0  245 0.5 0  249 0 0  251 0 0  250 1 0  251 1 0  252 0.5 0  253 0 0  255 0 0  254 1 0  255 1 0  218 6 0  220 6 0  219 5 0  219 7 0  450 18.74999999996255 0  450 37.4999999999247 0  450 56.24999999988687 0  450 74.99999999984904 0  450 93.74999999981115 0  450 112.4999999997733 0  450 131.2499999997187 0  450 149.9999999995976 0  450 168.7499999996431 0  450 187.4999999996941 0  450 206.249999999745 0  450 224.9999999997961 0  450 243.749999999847 0  450 262.499999999898 0  450 281.249999999949 0  430.4347826087039 300 0  410.8695652174077 300 0  391.3043478261116 300 0  371.7391304348154 300 0  352.1739130435193 300 0  332.6086956522231 300 0  313.043478260927 300 0  293.4782608696308 300 0  273.9130434783347 300 0  254.3478260870386 300 0  234.7826086957424 300 0  215.2173913043845 300 0  195.6521739129687 300 0  176.0869565216654 300 0  156.5217391303692 300 0  136.956521739073 300 0  117.3913043477769 300 0  97.82608695648076 300 0  78.26086956518463 300 0  58.69565217388845 300 0  39.13043478259226 300 0  19.56521739129619 300 0  0 281.2499999999868 0  0 262.4999999999736 0  0 243.7499999999605 0  0 224.9999999999473 0  0 206.2499999999341 0  0 187.4999999999209 0  0 168.749999999941 0  0 150.0000000000999 0  0 131.2500000000923 0  0 112.5000000000791 0  0 93.75000000006591 0  0 75.00000000005275 0  0 56.25000000003956 0  0 37.50000000002632 0  0 18.75000000001319 0  239.0020089923861 0.063355731562034 0  239.0078669237896 0.1251876954392177 0  239.0173189540956 0.1853050512541301 0  239.0301104026608 0.243545003999721 0  239.0459888465302 0.2997711111084815 0  239.0647058707711 0.3538712927462628 0  239.0860185776573 0.4057560345977113 0  239.1096908286717 0.4553565410189064 0  239.1354942695903 0.5026229621582694 0  239.1632091334853 0.5475226440227238 0  239.1926249250355 0.5900385481695689 0  239.2235407638306 0.6301674813628185 0  239.2557657849086 0.6679187323973781 0  239.2891195163637 0.7033128308121627 0  239.3234314721495 0.736379675929636 0  239.3585416405058 0.7671578540528868 0  239.3943001347868 0.7956932029876407 0  239.4305670884679 0.8220378089017952 0  239.4672124255662 0.8462490180372396 0  239.5041156045838 0.8683885457459335 0  239.5411652540955 0.8885216237947197 0  239.5782590182344 0.9067163527252478 0  239.6153028595457 0.9230428538948069 0  239.6522110523273 0.9375728493705031 0  239.6889055603574 0.9503790031474065 0  239.72531568381 0.961534464509318 0  239.7613777251139 0.9711124599798758 0  239.7970345748618 0.9791859048201496 0  239.8322353596756 0.9858270768531486 0  239.8669348413503 0.9911072916458271 0  239.9010933583037 0.9950967170221953 0  239.9346762707545 0.997864124216049 0  239.9676536620218 0.9994767202988784 0  240.0323463381051 0.99947672029477 0  240.0653237301236 0.9978641241585631 0  240.0989066431223 0.9950967168804671 0  240.1330651602428 0.9911072914319439 0  240.1677646419726 0.9858270765726634 0  240.2029654269951 0.979185904435247 0  240.2386222604036 0.9711124635385281 0  240.2746843192525 0.9615344636344383 0  240.3110944429274 0.9503790020721721 0  240.3477889498758 0.9375728485532481 0  240.3846971416895 0.9230428533800188 0  240.4217409837351 0.9067163518091972 0  240.4588347483695 0.888521622521743 0  240.4958843983252 0.8683885440847672 0  240.5327875773925 0.846249016174439 0  240.5694329140487 0.8220378071585059 0  240.6056998679296 0.7956932009198679 0  240.641458362852 0.7671578512452597 0  240.6765685310523 0.736379672987914 0  240.7108804867128 0.7033128277025616 0  240.7442342180933 0.6679187290524371 0  240.7764592391041 0.6301674777468723 0  240.8073750777669 0.5900385443348745 0  240.8367908685816 0.5475226408638091 0  240.8645057322388 0.502622959012232 0  240.8903091726418 0.4553565384507763 0  240.9139814234573 0.4057560320869432 0  240.935294130113 0.3538712904094632 0  240.9540111540606 0.2997711092283469 0  240.9698895977127 0.2435450025123902 0  240.9826810461417 0.1853050499957777 0  240.9921330763121 0.1251876946332835 0  240.9979910076399 0.06335573115285377 0  19.07313083408946 0 0  36.62914865337193 0 0  52.78872776666245 0 0  67.66294316503189 0 0  81.35403592247388 0 0  93.95611282074414 0 0  105.5557983528504 0 0  116.232821720657 0 0  126.0605737836516 0 0  135.1066082939938 0 0  143.4331031430934 0 0  151.0972942765542 0 0  158.1518597677678 0 0  164.6452915695546 0 0  170.6222242131193 0 0  176.1237410801825 0 0  181.1876562047598 0 0  185.8487776061107 0 0  190.1391446617669 0 0  194.0882480115289 0 0  197.7232317929691 0 0  201.0690823493409 0 0  204.1487976997366 0 0  206.9835466314066 0 0  209.5928142511325 0 0  211.9945355586087 0 0  214.2052194838717 0 0  216.2400614105106 0 0  218.1130481886055 0 0  219.8370539832718 0 0  221.4239291426067 0 0  222.8845810788478 0 0  224.2290504301268 0 0  225.4665779536317 0 0  226.605669993667 0 0  227.6541566437948 0 0  228.6192445405487 0 0  229.5075676876214 0 0  230.3252317386607 0 0  231.0778573048299 0 0  231.770617755868 0 0  232.408274652188 0 0  232.9952110508675 0 0  233.535461430947 0 0  234.0327392724896 0 0  234.4904626932667 0 0  234.9117779343538 0 0  235.2995808791209 0 0  235.6565373743904 0 0  235.985100819112 0 0  236.2875296991633 0 0  236.5659028059075 0 0  236.8221335872304 0 0  237.057983304845 0 0  237.2750730790692 0 0  237.4748950918539 0 0  237.6588229239073 0 0  237.8281207703916 0 0  237.9839523507871 0 0  238.1273887825019 0 0  238.2594160068179 0 0  238.3809415553307 0 0  238.492800698776 0 0  238.5957623728575 0 0  238.6905342816032 0 0  238.7777678597979 0 0  238.8580626994615 0 0  238.9319707379024 0 0  249.0020089923861 0.063355731562034 0  249.0078669237896 0.1251876954392177 0  249.0173189540956 0.1853050512541301 0  249.0301104026608 0.243545003999721 0  249.0459888465302 0.2997711111084815 0  249.0647058707711 0.3538712927462628 0  249.0860185776573 0.4057560345977113 0  249.1096908286717 0.4553565410189064 0  249.1354942695903 0.5026229621582694 0  249.1632091334853 0.5475226440227238 0  249.1926249250355 0.5900385481695689 0  249.2235407638306 0.6301674813628185 0  249.2557657849086 0.6679187323973781 0  249.2891195163637 0.7033128308121627 0  249.3234314721495 0.736379675929636 0  249.3585416405058 0.7671578540528868 0  249.3943001347868 0.7956932029876407 0  249.4305670884679 0.8220378089017952 0  249.4672124255662 0.8462490180372396 0  249.5041156045838 0.8683885457459335 0  249.5411652540955 0.8885216237947197 0  249.5782590182344 0.9067163527252478 0  249.6153028595457 0.9230428538948069 0  249.6522110523273 0.9375728493705031 0  249.6889055603574 0.9503790031474065 0  249.72531568381 0.961534464509318 0  249.7613777251139 0.9711124599798758 0  249.7970345748618 0.9791859048201496 0  249.8322353596756 0.9858270768531486 0  249.8669348413503 0.9911072916458271 0  249.9010933583037 0.9950967170221953 0  249.9346762707545 0.997864124216049 0  249.9676536620218 0.9994767202988784 0  250.0323463381051 0.99947672029477 0  250.0653237301236 0.9978641241585631 0  250.0989066431223 0.9950967168804671 0  250.1330651602428 0.9911072914319439 0  250.1677646419726 0.9858270765726634 0  250.2029654269951 0.979185904435247 0  250.2386222604036 0.9711124635385281 0  250.2746843192525 0.9615344636344383 0  250.3110944429274 0.9503790020721721 0  250.3477889498758 0.9375728485532481 0  250.3846971416895 0.9230428533800188 0  250.4217409837351 0.9067163518091972 0  250.4588347483695 0.888521622521743 0  250.4958843983252 0.8683885440847672 0  250.5327875773925 0.846249016174439 0  250.5694329140487 0.8220378071585059 0  250.6056998679296 0.7956932009198679 0  250.641458362852 0.7671578512452597 0  250.6765685310523 0.736379672987914 0  250.7108804867128 0.7033128277025616 0  250.7442342180933 0.6679187290524371 0  250.7764592391041 0.6301674777468723 0  250.8073750777669 0.5900385443348745 0  250.8367908685816 0.5475226408638091 0  250.8645057322388 0.502622959012232 0  250.8903091726418 0.4553565384507763 0  250.9139814234573 0.4057560320869432 0  250.935294130113 0.3538712904094632 0  250.9540111540606 0.2997711092283469 0  250.9698895977127 0.2435450025123902 0  250.9826810461417 0.1853050499957777 0  250.9921330763121 0.1251876946332835 0  250.9979910076399 0.06335573115285377 0  241.0650406504065 0 0  241.130081300813 0 0  241.1951219512195 0 0  241.260162601626 0 0  241.3252032520325 0 0  241.390243902439 0 0  241.4552845528455 0 0  241.520325203252 0 0  241.5853658536585 0 0  241.650406504065 0 0  241.7154471544715 0 0  241.780487804878 0 0  241.8455284552846 0 0  241.9105691056911 0 0  241.9756097560976 0 0  242.0406504065041 0 0  242.1056910569106 0 0  242.1707317073171 0 0  242.2357723577236 0 0  242.3008130081301 0 0  242.3658536585366 0 0  242.4308943089431 0 0  242.4959349593496 0 0  242.5609756097561 0 0  242.6260162601626 0 0  242.6910569105691 0 0  242.7560975609756 0 0  242.8211382113821 0 0  242.8861788617886 0 0  242.9512195121951 0 0  243.0162601626016 0 0  243.0813008130081 0 0  243.1463414634146 0 0  243.2113821138211 0 0  243.2764227642276 0 0  243.3414634146341 0 0  243.4065040650407 0 0  243.4715447154472 0 0  243.5365853658537 0 0  243.6016260162602 0 0  243.6666666666667 0 0  243.7317073170732 0 0  243.7967479674797 0 0  243.8617886178862 0 0  243.9268292682927 0 0  243.9918699186992 0 0  244.0569105691057 0 0  244.1219512195122 0 0  244.1869918699187 0 0  244.2520325203252 0 0  244.3170731707317 0 0  244.3821138211382 0 0  244.4471544715447 0 0  244.5121951219512 0 0  244.5772357723577 0 0  244.6422764227642 0 0  244.7073170731707 0 0  244.7723577235772 0 0  244.8373983739837 0 0  244.9024390243902 0 0  244.9674796747967 0 0  245.0325203252033 0 0  245.0975609756098 0 0  245.1626016260163 0 0  245.2276422764228 0 0  245.2926829268293 0 
[...]
<PointData  Scalars="foodini"> 
<DataArray  type="Float64"  Name="foodini"  format="ascii">0.0000000000000000e+00  0.0000000000000000e+00  0.0000000000000000e+00  0.0000000000000000e+00  0.0000000000000000e+00  0.0000000000000000e+00  0.0000000000000000e+00  5.1129672585316012e-02  1.0451531119063132e-01  0.0000000000000000e+00  0.0000000000000000e+00  0.0000000000000000e+00  2.4640798360003532e-02  2.9294273981388379e-02  0.0000000000000000e+00  0.0000000000000000e+00  0.0000000000000000e+00  2.7099825175500157e-02  1.0000000000000000e+00  1.0000000000000000e+00  1.0000000000000002e+00  1.0000000000000000e+00  0.0000000000000000e+00  0.0000000000000000e+00  0.0000000000000000e+00  0.0000000000000000e+00  0.0000000000000000e+00  0.0000000000000000e+00  0.0000000000000000e+00  0.0000000000000000e+00  0.0000000000000000e+00  0.0000000000000000e+00  0.0000000000000000e+00  0.0000000000000000e+00  0.0000000000000000e+00  0.0000000000000000e+00  0.0000000000000000e+00  0.0000000000000000e+00  0.0000000000000000e+00  0.0000000000000000e+00  0.0000000000000000e+00  0.0000000000000000e+00  0.0000000000000000e+00  0.0000000000000000e+00  0.0000000000000000e+00  0.0000000000000000e+00  0.0000000000000000e+00  0.0000000000000000e+00  0.0000000000000000e+00  0.0000000000000000e+00  0.0000000000000000e+00  0.0000000000000000e+00  0.0000000000000000e+00  0.0000000000000000e+00  0.0000000000000000e+00  0.0000000000000000e+00  0.0000000000000000e+00  0.0000000000000000e+00  0.0000000000000000e+00  0.0000000000000000e+00  0.0000000000000000e+00  0.0000000000000000e+00  0.0000000000000000e+00  0.0000000000000000e+00  0.0000000000000000e+00  0.0000000000000000e+00  0.0000000000000000e+00  0.0000000000000000e+00  0.0000000000000000e+00  0.0000000000000000e+00  0.0000000000000000e+00  0.0000000000000000e+00  0.0000000000000000e+00  0.0000000000000000e+00  0.0000000000000000e+00  0.0000000000000000e+00  0.0000000000000000e+00  0.0000000000000000e+00  0.0000000000000000e+00  0.0000000000000000e+00  0.0000000000000000e+00  0.0000000000000000e+00  0.0000000000000000e+00  0.0000000000000000e+00  0.0000000000000000e+00  0.0000000000000000e+00  0.0000000000000000e+00  0.0000000000000000e+00  0.0000000000000000e+00  0.0000000000000000e+00  0.0000000000000000e+00  0.0000000000000000e+00  0.0000000000000000e+00  0.0000000000000000e+00  0.0000000000000000e+00  0.0000000000000000e+00  0.0000000000000000e+00  0.0000000000000000e+00  0.0000000000000000e+00  0.0000000000000000e+00  0.0000000000000000e+00  0.0000000000000000e+00  0.0000000000000000e+00  0.0000000000000000e+00  0.0000000000000000e+00  0.0000000000000000e+00  0.0000000000000000e+00  0.0000000000000000e+00  0.0000000000000000e+00  0.0000000000000000e+00  0.0000000000000000e+00  0.0000000000000000e+00  0.0000000000000000e+00  0.0000000000000000e+00  0.0000000000000000e+00  0.0000000000000000e+00  0.0000000000000000e+00  0.0000000000000000e+00  0.0000000000000000e+00  0.0000000000000000e+00  0.0000000000000000e+00  0.0000000000000000e+00  0.0000000000000000e+00  0.0000000000000000e+00  0.0000000000000000e+00  0.0000000000000000e+00  0.0000000000000000e+00  0.0000000000000000e+00  0.0000000000000000e+00  0.0000000000000000e+00  0.0000000000000000e+00  0.0000000000000000e+00  0.0000000000000000e+00  0.0000000000000000e+00  0.0000000000000000e+00  0.0000000000000000e+00  0.0000000000000000e+00  0.0000000000000000e+00  0.0000000000000000e+00  0.0000000000000000e+00  3.3135626206004013e-03  6.5226543577646522e-03  9.7542587398711991e-03  1.3107541255538287e-02  1.6663907861528045e-02  2.0497772442707996e-02  2.4682766254115373e-02  2.9293763077200701e-02  3.4418791361964879e-02  4.0148296864384148e-02  4.6597505818430876e-02  5.3899555333676366e-02  6.2215700613825128e-02  7.1745167034564752e-02  8.2737649877211314e-02  9.5506537284417298e-02  1.1045015538231401e-01  1.2810136353537749e-01  1.4911856555367248e-01  1.7443797080462348e-01  2.0526946422241785e-01  2.4324493511624559e-01  2.9049026807905148e-01  3.4984870576213495e-01  4.2418301522894658e-01  5.1517238237639351e-01  6.1859308536885493e-01  7.1676105802668810e-01  7.7703481703252397e-01  7.7700896841910727e-01  7.2796371410955896e-01  6.5904163973807117e-01  5.9040831220351864e-01  5.3014254075968514e-01  4.7951537683554391e-01  4.3750322377445544e-01  4.0255834700172410e-01  3.7323881296669853e-01  3.4836225471997223e-01  3.2699672201559726e-01  3.0841480194715226e-01  2.9205463191911485e-01  2.7747400303656788e-01  2.6432187089057840e-01  2.5231787919692239e-01  2.4123352516032218e-01  2.3088139130762589e-01  2.2110363085201223e-01  2.1176756472283220e-01  2.0275799161081492e-01  1.9397553368511458e-01  1.8533107847643196e-01  1.7674553004939633e-01  1.6814625694769400e-01  1.5946807133746832e-01  1.5064693377056856e-01  1.4162670842585423e-01  1.3235164466597471e-01  1.2276821657874290e-01  1.1283051599393523e-01  1.0248472353856442e-01  9.1689980779914401e-02  8.0399857701280789e-02  6.8572235244668323e-02  5.6167458962922731e-02  4.3147885512591258e-02  2.9480447173978519e-02  1.5131768252414775e-02  0.0000000000000000e+00  0.0000000000000000e+00  0.0000000000000000e+00  0.0000000000000000e+00  0.0000000000000000e+00  0.0000000000000000e+00  0.0000000000000000e+00  0.0000000000000000e+00  0.0000000000000000e+00  0.0000000000000000e+00  0.0000000000000000e+00  0.0000000000000000e+00  0.0000000000000000e+00  0.0000000000000000e+00  0.0000000000000000e+00  0.0000000000000000e+00  0.0000000000000000e+00  0.0000000000000000e+00  0.0000000000000000e+00  0.0000000000000000e+00  0.0000000000000000e+00  0.0000000000000000e+00  0.0000000000000000e+00  0.0000000000000000e+00  0.0000000000000000e+00  0.0000000000000000e+00  0.0000000000000000e+00  0.0000000000000000e+00  0.0000000000000000e+00  0.0000000000000000e+00  0.0000000000000000e+00  0.0000000000000000e+00  0.0000000000000000e+00  0.0000000000000000e+00  0.0000000000000000e+00  0.0000000000000000e+00  0.0000000000000000e+00  0.0000000000000000e+00  0.0000000000000000e+00  0.0000000000000000e+00  0.0000000000000000e+00  0.0000000000000000e+00  0.0000000000000000e+00  0.0000000000000000e+00  0.0000000000000000e+00  0.0000000000000000e+00  0.0000000000000000e+00  0.0000000000000000e+00  0.0000000000000000e+00  0.0000000000000000e+00  0.0000000000000000e+00  0.0000000000000000e+00  0.0000000000000000e+00  0.0000000000000000e+00  0.0000000000000000e+00  0.0000000000000000e+00  0.0000000000000000e+00  0.0000000000000000e+00  0.0000000000000000e+00  0.0000000000000000e+00  0.0000000000000000e+00  0.0000000000000000e+00  0.0000000000000000e+00  0.0000000000000000e+00  0.0000000000000000e+00  0.0000000000000000e+00  1.0179926285703035e-02  1.9129095226037326e-02  2.7081189494811319e-02  3.4183653914750457e-02  4.0555486256430968e-02  4.6294314091795311e-02  5.1481287969941038e-02  5.6184675631900209e-02  6.0461524260598899e-02  6.4360443295773728e-02  6.7922968555438487e-02  7.1184644221177318e-02  7.4176208509440053e-02  7.6924393901548080e-02  7.9452573809183483e-02  8.1781066120828791e-02  8.3927854231979376e-02  8.5908788520395157e-02  8.7737816850129671e-02  8.9427715632183796e-02  9.0989277760645804e-02  9.2432720795589243e-02  9.3766969281985232e-02  9.4999958222950140e-02  9.6139158999855229e-02  9.7190864431822913e-02  9.8161305808181915e-02  9.9055636228651878e-02  9.9879024952635023e-02  1.0063575514581057e-01  1.0133000836546271e-01  1.0196552007664776e-01  1.0254571757388400e-01  1.0307372632553283e-01  1.0355251775699277e-01  1.0398461733507715e-01  1.0437257307135217e-01  1.0471859696278193e-01  1.0502475795915538e-01  1.0529298021438102e-01  1.0552507520339258e-01  1.0572262206551054e-01  1.0588713417467088e-01  1.0602002406232981e-01  1.0612261774028119e-01  1.0619602585455425e-01  1.0624140967491277e-01  1.0625977035237638e-01  1.0625203215823972e-01  1.0621906499199459e-01  1.0616165718021157e-01  1.0608055340004466e-01  1.0597638719309749e-01  1.0584979017833840e-01  1.0570129934682998e-01  1.0553143228089636e-01  1.0534060995461927e-01  1.0512924363965709e-01  1.0489768736983911e-01  1.0464625106833747e-01  1.0437519447192474e-01  1.0408474007609755e-01  1.0377506468252316e-01  1.0344630363626095e-01  1.0309855537888164e-01  1.0273187271066170e-01  1.0234627046678889e-01  1.0194172319612529e-01  1.0151816571654883e-01  1.0107547991417279e-01  1.0061352398221010e-01  1.0013209561217851e-01  9.9630955163333548e-02  9.9109814724365655e-02  9.8568335354100797e-02  9.8006134401242354e-02  9.7422758280394567e-02  9.6817737210814506e-02  9.6190493265591093e-02  9.5540416199604863e-02  9.4866816889204397e-02  9.4168941877084675e-02  9.3445934120473029e-02  9.2696920536252114e-02  9.1920837638099731e-02  9.1116638567297042e-02  9.0283070397785173e-02  8.9418831013712383e-02  8.8522460548944679e-02  8.7592359601572842e-02  8.6626790143575341e-02  8.5623858196407540e-02  8.4581460599801553e-02  8.3497304396406652e-02  8.2368804924839861e-02  8.1193261276665152e-02  7.9967554534335947e-02  7.8688289709393400e-02  7.7351716354148323e-02  7.5953667652999685e-02  7.4489529218339040e-02  7.2954089959758592e-02  7.1341645552630770e-02  6.9645733966957848e-02  6.7859003879876423e-02  6.5973402825072386e-02  6.3979578084357974e-02  6.1867091206246907e-02  5.9623914449244454e-02  5.7236369962662584e-02  5.4688730011773892e-02  5.1962520953549557e-02  4.9036930708240695e-02  4.5886896052904795e-02  4.2483416648462648e-02  3.8792005000473445e-02  3.4771775902051313e-02  3.0372832582039083e-02  2.5535884243586188e-02  2.0186907065168309e-02  1.4235633864845066e-02  7.5672132997078485e-03  0.0000000000000000e+00  0.0000000000000000e+00  0.0000000000000000e+00  0.0000000000000000e+00  0.0000000000000000e+00  0.0000000000000000e+00  0.0000000000000000e+00  0.0000000000000000e+00  0.0000000000000000e+00  0.0000000000000000e+00  0.0000000000000000e+00  0.0000000000000000e+00  0.0000000000000000e+00  0.0000000000000000e+00  0.0000000000000000e+00  0.0000000000000000e+00  0.0000000000000000e+00  0.0000000000000000e+00  0.0000000000000000e+00  0.0000000000000000e+00  0.0000000000000000e+00  0.0000000000000000e+00  0.0000000000000000e+00  0.0000000000000000e+00  0.0000000000000000e+00  0.0000000000000000e+00  0.0000000000000000e+00  0.0000000000000000e+00  0.0000000000000000e+00  0.0000000000000000e+00  0.0000000000000000e+00  0.0000000000000000e+00  0.0000000000000000e+00  0.0000000000000000e+00  0.0000000000000000e+00  0.0000000000000000e+00  0.0000000000000000e+00  0.0000000000000000e+00  0.0000000000000000e+00  0.0000000000000000e+00  0.0000000000000000e+00  0.0000000000000000e+00  0.0000000000000000e+00  0.0000000000000000e+00  0.0000000000000000e+00  0.0000000000000000e+00  0.0000000000000000e+00  0.0000000000000000e+00  0.0000000000000000e+00  0.0000000000000000e+00  0.0000000000000000e+00  0.0000000000000000e+00  0.0000000000000000e+00  0.0000000000000000e+00  0.0000000000000000e+00  0.0000000000000000e+00  0.0000000000000000e+00  0.0000000000000000e+00  0.0000000000000000e+00  0.0000000000000000e+00  0.0000000000000000e+00  0.0000000000000000e+00  0.0000000000000000e+00  0.0000000000000000e+00  0.0000000000000000e+00  0.0000000000000000e+00  4.1497199237599033e-03  7.7765515560732088e-03  1.0959920056554079e-02  1.3749932934186228e-02  1.6188351156893689e-02  1.8310560443447449e-02  2.0146160774842641e-02  2.1720332888229991e-02  2.3053663797070450e-02  2.4163366430053099e-02  2.5063628803029734e-02  2.5765670076034076e-02  2.6278279497913004e-02  2.6608135115857093e-02  2.6759615646808180e-02  2.6735318695689826e-02  2.6535866922567517e-02  2.6159980990047307e-02  2.5604343753383392e-02  2.4863354503523553e-02  2.3929883159281708e-02  2.2793560981947552e-02  2.1441685439013196e-02  1.9858407017476272e-02  1.8024301960033094e-02  1.5915439528652622e-02  1.3503425593421497e-02  1.0753243166513306e-02  7.6244867889201286e-03  4.0662874520247042e-03  5.8585327650621331e-03  1.1497593248550061e-02  1.6926793088654312e-02  2.2129624773317882e-02  2.7092965655350867e-02  3.1806982953377014e-02  3.6264069901186656e-02  4.0460277490080986e-02  4.4390700440024140e-02  4.8055424079976150e-02  5.1453930789785489e-02  5.4588374565933857e-02  5.7460847208889214e-02  6.0074091564059448e-02  6.2430615055202913e-02  6.4533558098339397e-02  6.6386393723592244e-02  6.7989887960423143e-02  6.9348409336587619e-02  7.0461335988940568e-02  7.1330989257458469e-02  7.1960077184278159e-02  7.2347302494151014e-02  7.2495203067900749e-02  7.2404673891919014e-02  7.2077730799016915e-02  7.1516693638983844e-02  7.0725027175950972e-02  6.9706728109106206e-02  6.8467336103050419e-02  6.7013992664500033e-02  6.5355210113236278e-02  6.3501236106040929e-02  6.1464051707668513e-02  5.9257251182836208e-02  5.6896135149597772e-02  5.4397486520059629e-02  5.1779339894029115e-02  4.9060762652253634e-02  4.6261443405225137e-02  4.3401395579045390e-02  4.0500640774535794e-02  3.7578518734263516e-02  3.4653526215984658e-02  3.1742388909321524e-02  2.8860720324225646e-02  2.6021738529855794e-02  2.3235204696540716e-02  2.0509023462219795e-02  1.7847093667593877e-02  1.5248751920259006e-02  1.2707524658048062e-02  1.0211461507465512e-02  7.7386903793283659e-03  5.2536869604296104e-03  2.7026680387279584e-03  1.0000000000000000e+00  1.0000000000000000e+00  1.0000000000000000e+00  1.0000000000000000e+00  9.9999999999999989e-01  1.0000000000000002e+00  9.9999999999999989e-01  1.0000000000000000e+00  1.0000000000000000e+00  1.0000000000000000e+00  1.0000000000000000e+00  1.0000000000000000e+00  1.0000000000000000e+00  9.9999999999999989e-01  1.0000000000000002e+00  1.0000000000000002e+00  1.0000000000000000e+00  1.0000000000000000e+00  9.9999999999999989e-01  9.9999999999999978e-01  1.0000000000000000e+00  9.9999999999999989e-01  1.0000000000000000e+00  9.9999999999999989e-01  9.9999999999999989e-01  1.0000000000000002e+00  1.0000000000000000e+00  1.0000000000000000e+00  1.0000000000000000e+00  9.9999999999999978e-01  1.0000000000000000e+00  1.0000000000000000e+00  1.0000000000000000e+00  1.0000000000000002e+00  1.0000000000000002e+00  1.0000000000000000e+00  1.0000000000000002e+00  1.0000000000000000e+00  1.0000000000000000e+00  9.9999999999999989e-01  1.0000000000000000e+00  1.0000000000000000e+00  1.0000000000000000e+00  1.0000000000000000e+00  1.0000000000000000e+00  1.0000000000000002e+00  9.9999999999999989e-01  1.0000000000000000e+00  9.9999999999999989e-01  9.9999999999999989e-01  1.0000000000000000e+00  1.0000000000000000e+00  1.0000000000000002e+00  9.9999999999999989e-01  1.0000000000000000e+00  9.9999999999999989e-01  1.0000000000000002e+00  1.0000000000000000e+00  1.0000000000000000e+00  9.9999999999999989e-01  1.0000000000000002e+00  1.0000000000000000e+00  9.9999999999999989e-01  9.9999999999999989e-01  1.0000000000000000e+00  1.0000000000000000e+00  9.9999999999999989e-01  1.0000000000000000e+00  1.0000000000000000e+00  9.9999999999999989e-01  1.0000000000000000e+00  1.0000000000000000e+00  1.0000000000000000e+00  1.0000000000000000e+00  9.9999999999999989e-01  1.0000000000000000e+00  1.0000000000000000e+00  1.0000000000000000e+00  1.0000000000000000e+00  1.0000000000000000e+00  9.9999999999999989e-01  1.0000000000000000e+00  1.0000000000000000e+00  1.0000000000000000e+00  1.0000000000000002e+00  1.0000000000000000e+00  1.0000000000000000e+00  1.0000000000000002e+00  1.0000000000000000e+00  1.0000000000000000e+00  1.0000000000000000e+00  9.9999999999999978e-01  1.0000000000000000e+00  1.0000000000000000e+00  9.9999999999999989e-01  9.9999999999999989e-01  1.0000000000000000e+00  1.0000000000000000e+00  9.9999999999999989e-01  1.0000000000000000e+00  1.0000000000000000e+00  1.0000000000000000e+00  1.0000000000000000e+00  1.0000000000000002e+00  9.9999999999999989e-01  1.0000000000000000e+00  1.0000000000000000e+00  1.0000000000000000e+00  1.0000000000000000e+00  9.9999999999999989e-01  1.0000000000000000e+00  1.0000000000000000e+00  1.0000000000000000e+00  1.0000000000000000e+00  9.9999999999999989e-01  1.0000000000000000e+00  1.0000000000000000e+00  1.0000000000000000e+00  9.9999999999999989e-01  9.9999999999999989e-01  1.0000000000000002e+00  1.0000000000000000e+00  1.0000000000000000e+00  1.0000000000000000e+00  1.0000000000000000e+00  1.0000000000000000e+00  9.9999999999999989e-01  9.9999999999999989e-01  1.0000000000000000e+00  1.0000000000000000e+00  9.9999999999999989e-01  1.0000000000000000e+00  1.0000000000000000e+00  9.9999999999999989e-01  1.0000000000000000e+00  9.9999999999999989e-01  1.0000000000000000e+00  1.0000000000000000e+00  1.0000000000000000e+00  1.0000000000000000e+00  1.0000000000000000e+00  1.0000000000000000e+00  1.0000000000000002e+00  9.9999999999999989e-01  1.0000000000000000e+00  1.0000000000000000e+00  1.0000000000000000e+00  9.9999999999999989e-01  1.0000000000000000e+00  1.0000000000000000e+00  9.9999999999999989e-01  9.9999999999999989e-01  1.0000000000000000e+00  1.0000000000000000e+00  1.0000000000000000e+00  1.0000000000000000e+00  1.0000000000000000e+00  1.0000000000000002e+00  1.0000000000000000e+00  1.0000000000000000e+00  9.9999999999999989e-01  1.0000000000000000e+00  1.0000000000000000e+00  9.9999999999999989e-01  1.0000000000000002e+00  1.0000000000000002e+00  9.9999999999999989e-01  1.0000000000000000e+00  1.0000000000000000e+00  1.0000000000000000e+00  1.0000000000000000e+00  1.0000000000000000e+00  9.9999999999999989e-01  1.0000000000000002e+00  1.0000000000000000e+00  1.0000000000000000e+00  1.0000000000000000e+00  1.0000000000000002e+00  1.0000000000000000e+00  9.9999999999999989e-01  1.0000000000000000e+00  1.0000000000000000e+00  1.0000000000000000e+00  1.0000000000000000e+00  1.0000000000000000e+00  9.9999999999999978e-01  1.0000000000000000e+00  1.0000000000000000e+00  1.0000000000000000e+00  9.9999999999999978e-01  1.0000000000000000e+00  1.0000000000000000e+00  6.4490645799114149e-02  8.5105192953465747e-02  2.5812252778882927e-01  7.2522546921139047e-02  7.3699438974547046e-02  4.7599134569709732e-02  1.0120640587326284e-01  9.2273191822486667e-02  1.9002044637474710e-01  6.0742288767901081e-02  3.5973824303985880e-01  1.0382308816082768e-01  9.9481915718425754e-02  9.3177991978324992e-02  1.0562379828652060e-01  9.6513392045673746e-02  3.3156971047259343e-02  5.2662037250734471e-03  1.4509852303209278e-01  5.0156274618939123e-02  6.8944889575927037e-02  9.8064396251927536e-03  2.2089085011028198e-01  8.4782667413283663e-02  1.0622730821038887e-01  4.7823534629141622e-02  2.1791550498862139e-02  9.7582105457601285e-04  2.6886383030942464e-02  7.0276500216781224e-02  7.3272316129044321e-03  1.0959934970948473e-01  6.1388788340529299e-02  7.9319163639882243e-02  8.2249219491968887e-04  5.8513653341494373e-02  8.8980914955828092e-02  1.3143935450432923e-03  7.2763730752306924e-02  5.6048346427706383e-03  1.4367456796243851e-03  9.8827335683462914e-02  1.0620240484818723e-01  1.1324195874033693e-02  4.4331305725773462e-03  1.9313699515675464e-02  4.1494697435924023e-03  1.9025318509469150e-02  3.3134758817684401e-03  5.0107560045273658e-01  3.6742250291202341e-03  3.1622836962263198e-03  2.9919626228817331e-01  1.3819579474075314e-02  5.8282133007486886e-02  2.1682547574371366e-01  3.8583360126967448e-01  3.2809107769318939e-02  7.8284685346334179e-04  7.1806283253559922e-02  7.5188100569542740e-02  6.5540271465908725e-04  6.6853314910043773e-02  2.9663847573816855e-02  4.2619924496229949e-02  5.3386436232664494e-02  2.3426952118362779e-02  2.3536086044754469e-02  4.3608987658258110e-02  1.9463619284241071e-03  9.6686532525371571e-02  1.0166603461505469e-01  9.4593748905541564e-02  7.2312541028550536e-04  1.0489651942827859e-01  1.0037892973582617e-01  1.0592845000963577e-01  1.0174102404654445e-01  1.8068159146047832e-03  8.1720058797358326e-04  3.3552488608583116e-03  3.4364540105404056e-03  1.4659667081998543e-02  5.8535362351574442e-03  1.0727467158995856e-02  4.4603142461585267e-03  8.0790472606334322e-03  5.5375836506418963e-01  7.0069535621089518e-01  4.02376869159