<?xml version="1.0"?>
<VTKFile type="UnstructuredGrid"  version="0.1"  >
<UnstructuredGrid>
<Piece  NumberOfPoints="7048" NumberOfCells="13361">
<Points>
<DataArray  type="Float64"  NumberOfComponents="3"  format="ascii">0 0 0  450 0 0  450 300 0  0 300 0  244 0 0  246 0 0  245 1 0  246 1 0  247 0.5 0  248 0 0  250 0 0  249 1 0  250 1 0  254 0.5 0  258 0 0  260 0 0  259 1 0  260 1 0  218 6 0  220 6 0  219 5 0  219 7 0  450 18.74999999996255 0  450 37.4999999999247 0  450 56.24999999988687 0  450 74.99999999984904 0  450 93.74999999981115 0  450 112.4999999997733 0  450 131.2499999997187 0  450 149.9999999995976 0  450 168.7499999996431 0  450 187.4999999996941 0  450 206.249999999745 0  450 224.9999999997961 0  450 243.749999999847 0  450 262.499999999898 0  450 281.249999999949 0  430.4347826087039 300 0  410.8695652174077 300 0  391.3043478261116 300 0  371.7391304348154 300 0  352.1739130435193 300 0  332.6086956522231 300 0  313.043478260927 300 0  293.4782608696308 300 0  273.9130434783347 300 0  254.3478260870386 300 0  234.7826086957424 300 0  215.2173913043845 300 0  195.6521739129687 300 0  176.0869565216654 300 0  156.5217391303692 300 0  136.956521739073 300 0  117.3913043477769 300 0  97.82608695648076 300 0  78.26086956518463 300 0  58.69565217388845 300 0  39.13043478259226 300 0  19.56521739129619 300 0  0 281.2499999999868 0  0 262.4999999999736 0  0 243.7499999999605 0  0 224.9999999999473 0  0 206.2499999999341 0  0 187.4999999999209 0  0 168.749999999941 0  0 150.0000000000999 0  0 131.2500000000923 0  0 112.5000000000791 0  0 93.75000000006591 0  0 75.00000000005275 0  0 56.25000000003956 0  0 37.50000000002632 0  0 18.75000000001319 0  244.0020089923861 0.063355731562034 0  244.0078669237896 0.1251876954392177 0  244.0173189540956 0.1853050512541301 0  244.0301104026608 0.243545003999721 0  244.0459888465302 0.2997711111084815 0  244.0647058707711 0.3538712927462628 0  244.0860185776573 0.4057560345977113 0  244.1096908286717 0.4553565410189064 0  244.1354942695903 0.5026229621582694 0  244.1632091334853 0.5475226440227238 0  244.1926249250355 0.5900385481695689 0  244.2235407638306 0.6301674813628185 0  244.2557657849086 0.6679187323973781 0  244.2891195163637 0.7033128308121627 0  244.3234314721495 0.736379675929636 0  244.3585416405058 0.7671578540528868 0  244.3943001347868 0.7956932029876407 0  244.4305670884679 0.8220378089017952 0  244.4672124255662 0.8462490180372396 0  244.5041156045838 0.8683885457459335 0  244.5411652540955 0.8885216237947197 0  244.5782590182344 0.9067163527252478 0  244.6153028595457 0.9230428538948069 0  244.6522110523273 0.9375728493705031 0  244.6889055603574 0.9503790031474065 0  244.72531568381 0.961534464509318 0  244.7613777251139 0.9711124599798758 0  244.7970345748618 0.9791859048201496 0  244.8322353596756 0.9858270768531486 0  244.8669348413503 0.9911072916458271 0  244.9010933583037 0.9950967170221953 0  244.9346762707545 0.997864124216049 0  244.9676536620218 0.9994767202988784 0  245.0323463381051 0.99947672029477 0  245.0653237301236 0.9978641241585631 0  245.0989066431223 0.9950967168804671 0  245.1330651602428 0.9911072914319439 0  245.1677646419726 0.9858270765726634 0  245.2029654269951 0.979185904435247 0  245.2386222604036 0.9711124635385281 0  245.2746843192525 0.9615344636344383 0  245.3110944429274 0.9503790020721721 0  245.3477889498758 0.9375728485532481 0  245.3846971416895 0.9230428533800188 0  245.4217409837351 0.9067163518091972 0  245.4588347483695 0.888521622521743 0  245.4958843983252 0.8683885440847672 0  245.5327875773925 0.846249016174439 0  245.5694329140487 0.8220378071585059 0  245.6056998679296 0.7956932009198679 0  245.641458362852 0.7671578512452597 0  245.6765685310523 0.736379672987914 0  245.7108804867128 0.7033128277025616 0  245.7442342180933 0.6679187290524371 0  245.7764592391041 0.6301674777468723 0  245.8073750777669 0.5900385443348745 0  245.8367908685816 0.5475226408638091 0  245.8645057322388 0.502622959012232 0  245.8903091726418 0.4553565384507763 0  245.9139814234573 0.4057560320869432 0  245.935294130113 0.3538712904094632 0  245.9540111540606 0.2997711092283469 0  245.9698895977127 0.2435450025123902 0  245.9826810461417 0.1853050499957777 0  245.9921330763121 0.1251876946332835 0  245.9979910076399 0.06335573115285377 0  18.94544233601968 0 0  36.4246887535104 0 0  52.55121276925549 0 0  67.42969948251179 0 0  81.15673241322948 0 0  93.82142946352431 0 0  105.5059982492523 0 0  116.2862961575567 0 0  126.2323025315844 0 0  135.4085836201535 0 0  143.8747089217869 0 0  151.6856383036877 0 0  158.8920770046551 0 0  165.5408075141198 0 0  171.6749898063199 0 0  177.3344465276182 0 0  182.5559155738656 0 0  187.3732930313048 0 0  191.8178523971543 0 0  195.9184451718947 0 0  199.7016919494661 0 0  203.1921522823818 0 0  206.4124845206111 0 0  209.3835935287054 0 0  212.1247684727116 0 0  214.6538025758509 0 0  216.9871135633375 0 0  219.1398489125696 0 0  221.1259835023521 0 0  222.9584102523937 0 0  224.6490248912877 0 0  226.2088022931082 0 0  227.6478682963119 0 0  228.9755641535605 0 0  230.2005092527978 0 0  231.3306554892109 0 0  232.3733392440762 0 0  233.3353293060796 0 0  234.2228708032782 0 0  235.0417250038022 0 0  235.7972077806924 0 0  236.4942236477724 0 0  237.1372970769632 0 0  237.7306028925388 0 0  238.277992540805 0 0  238.7830195030564 0 0  239.2489623030861 0 0  239.6788455836632 0 0  240.07546007201 0 0  240.4413803841251 0 0  240.7789821052267 0 0  241.0904566687011 0 0  241.3778260869814 0 0  241.6429558802451 0 0  241.8875671914052 0 0  242.113247984829 0 0  242.3214632048496 0 0  242.5135646404651 0 0  242.6907992500271 0 0  242.8543176086712 0 0  243.0051812259693 0 0  243.1443694580855 0 0  243.2727858655775 0 0  243.3912641007611 0 0  243.5005732397455 0 0  243.6014229022749 0 0  243.6944677840011 0 0  243.780311915581 0 0  243.8595125173488 0 0  243.9325837594959 0 0  248.0020089923861 0.063355731562034 0  248.0078669237896 0.1251876954392177 0  248.0173189540956 0.1853050512541301 0  248.0301104026608 0.243545003999721 0  248.0459888465302 0.2997711111084815 0  248.0647058707711 0.3538712927462628 0  248.0860185776573 0.4057560345977113 0  248.1096908286717 0.4553565410189064 0  248.1354942695903 0.5026229621582694 0  248.1632091334853 0.5475226440227238 0  248.1926249250355 0.5900385481695689 0  248.2235407638306 0.6301674813628185 0  248.2557657849086 0.6679187323973781 0  248.2891195163637 0.7033128308121627 0  248.3234314721495 0.736379675929636 0  248.3585416405058 0.7671578540528868 0  248.3943001347868 0.7956932029876407 0  248.4305670884679 0.8220378089017952 0  248.4672124255662 0.8462490180372396 0  248.5041156045838 0.8683885457459335 0  248.5411652540955 0.8885216237947197 0  248.5782590182344 0.9067163527252478 0  248.6153028595457 0.9230428538948069 0  248.6522110523273 0.9375728493705031 0  248.6889055603574 0.9503790031474065 0  248.72531568381 0.961534464509318 0  248.7613777251139 0.9711124599798758 0  248.7970345748618 0.9791859048201496 0  248.8322353596756 0.9858270768531486 0  248.8669348413503 0.9911072916458271 0  248.9010933583037 0.9950967170221953 0  248.9346762707545 0.997864124216049 0  248.9676536620218 0.9994767202988784 0  249.0323463381051 0.99947672029477 0  249.0653237301236 0.9978641241585631 0  249.0989066431223 0.9950967168804671 0  249.1330651602428 0.9911072914319439 0  249.1677646419726 0.9858270765726634 0  249.2029654269951 0.979185904435247 0  249.2386222604036 0.9711124635385281 0  249.2746843192525 0.9615344636344383 0  249.3110944429274 0.9503790020721721 0  249.3477889498758 0.9375728485532481 0  249.3846971416895 0.9230428533800188 0  249.4217409837351 0.9067163518091972 0  249.4588347483695 0.888521622521743 0  249.4958843983252 0.8683885440847672 0  249.5327875773925 0.846249016174439 0  249.5694329140487 0.8220378071585059 0  249.6056998679296 0.7956932009198679 0  249.641458362852 0.7671578512452597 0  249.6765685310523 0.736379672987914 0  249.7108804867128 0.7033128277025616 0  249.7442342180933 0.6679187290524371 0  249.7764592391041 0.6301674777468723 0  249.8073750777669 0.5900385443348745 0  249.8367908685816 0.5475226408638091 0  249.8645057322388 0.502622959012232 0  249.8903091726418 0.4553565384507763 0  249.9139814234573 0.4057560320869432 0  249.935294130113 0.3538712904094632 0  249.9540111540606 0.2997711092283469 0  249.9698895977127 0.2435450025123902 0  249.9826810461417 0.1853050499957777 0  249.9921330763121 0.1251876946332835 0  249.9979910076399 0.06335573115285377 0  246.0645161290323 0 0  246.1290322580645 0 0  246.1935483870968 0 0  246.258064516129 0 0  246.3225806451613 0 0  246.3870967741935 0 0  246.4516129032258 0 0  246.5161290322581 0 0  246.5806451612903 0 0  246.6451612903226 0 0  246.7096774193548 0 0  246.7741935483871 0 0  246.8387096774194 0 0  246.9032258064516 0 0  246.9677419354839 0 0  247.0322580645161 0 0  247.0967741935484 0 0  247.1612903225806 0 0  247.2258064516129 0 0  247.2903225806452 0 0  247.3548387096774 0 0  247.4193548387097 0 0  247.4838709677419 0 0  247.5483870967742 0 0  247.6129032258065 0 0  247.6774193548387 0 0  247.741935483871 0 0  247.8064516129032 0 0  247.8709677419355 0 0  247.9354838709677 0 0  258.002008993396 0.06335574747073615 0  258.0078669237902 0.1251876954433426 0  258.0173189539781 0.1853050506310671 0  258.0301103994225 0.2435449911036857 0  258.0459888463947 0.299771110677408 0  258.0647058708273 0.3538712928947036 0  258.0860185763872 0.405756031736635 0  258.1096908266138 0.4553565369953839 0  258.135494269649 0.5026229622592974 0  258.1632091479701 0.5475226661601389 0  258.1926249273729 0.5900385513680193 0  258.2235407641575 0.6301674817656872 0  258.2557658404291 0.6679187942615509 0  258.2891195200933 0.7033128345818904 0  258.3234314721918 0.7363796759684689 0  258.3585416360889 0.7671578503597419 0  258.3943001315378 0.7956932005143945 0  258.4305670876948 0.8220378083663017 0  258.4672124243863 0.8462490172943304 0  258.504115601595
[...]
<PointData  Scalars="foodini"> 
<DataArray  type="Float64"  Name="foodini"  format="ascii">0.0000000000000000e+00  0.0000000000000000e+00  0.0000000000000000e+00  0.0000000000000000e+00  0.0000000000000000e+00  0.0000000000000000e+00  0.0000000000000000e+00  3.2106271380072028e-02  3.7511334617131527e-02  0.0000000000000000e+00  0.0000000000000000e+00  0.0000000000000000e+00  3.1638169582943125e-02  7.2169913958018195e-02  0.0000000000000000e+00  0.0000000000000000e+00  0.0000000000000000e+00  2.5055475595257580e-02  1.0000000000000000e+00  1.0000000000000000e+00  1.0000000000000000e+00  9.9999999999999989e-01  0.0000000000000000e+00  0.0000000000000000e+00  0.0000000000000000e+00  0.0000000000000000e+00  0.0000000000000000e+00  0.0000000000000000e+00  0.0000000000000000e+00  0.0000000000000000e+00  0.0000000000000000e+00  0.0000000000000000e+00  0.0000000000000000e+00  0.0000000000000000e+00  0.0000000000000000e+00  0.0000000000000000e+00  0.0000000000000000e+00  0.0000000000000000e+00  0.0000000000000000e+00  0.0000000000000000e+00  0.0000000000000000e+00  0.0000000000000000e+00  0.0000000000000000e+00  0.0000000000000000e+00  0.0000000000000000e+00  0.0000000000000000e+00  0.0000000000000000e+00  0.0000000000000000e+00  0.0000000000000000e+00  0.0000000000000000e+00  0.0000000000000000e+00  0.0000000000000000e+00  0.0000000000000000e+00  0.0000000000000000e+00  0.0000000000000000e+00  0.0000000000000000e+00  0.0000000000000000e+00  0.0000000000000000e+00  0.0000000000000000e+00  0.0000000000000000e+00  0.0000000000000000e+00  0.0000000000000000e+00  0.0000000000000000e+00  0.0000000000000000e+00  0.0000000000000000e+00  0.0000000000000000e+00  0.0000000000000000e+00  0.0000000000000000e+00  0.0000000000000000e+00  0.0000000000000000e+00  0.0000000000000000e+00  0.0000000000000000e+00  0.0000000000000000e+00  0.0000000000000000e+00  0.0000000000000000e+00  0.0000000000000000e+00  0.0000000000000000e+00  0.0000000000000000e+00  0.0000000000000000e+00  0.0000000000000000e+00  0.0000000000000000e+00  0.0000000000000000e+00  0.0000000000000000e+00  0.0000000000000000e+00  0.0000000000000000e+00  0.0000000000000000e+00  0.0000000000000000e+00  0.0000000000000000e+00  0.0000000000000000e+00  0.0000000000000000e+00  0.0000000000000000e+00  0.0000000000000000e+00  0.0000000000000000e+00  0.0000000000000000e+00  0.0000000000000000e+00  0.0000000000000000e+00  0.0000000000000000e+00  0.0000000000000000e+00  0.0000000000000000e+00  0.0000000000000000e+00  0.0000000000000000e+00  0.0000000000000000e+00  0.0000000000000000e+00  0.0000000000000000e+00  0.0000000000000000e+00  0.0000000000000000e+00  0.0000000000000000e+00  0.0000000000000000e+00  0.0000000000000000e+00  0.0000000000000000e+00  0.0000000000000000e+00  0.0000000000000000e+00  0.0000000000000000e+00  0.0000000000000000e+00  0.0000000000000000e+00  0.0000000000000000e+00  0.0000000000000000e+00  0.0000000000000000e+00  0.0000000000000000e+00  0.0000000000000000e+00  0.0000000000000000e+00  0.0000000000000000e+00  0.0000000000000000e+00  0.0000000000000000e+00  0.0000000000000000e+00  0.0000000000000000e+00  0.0000000000000000e+00  0.0000000000000000e+00  0.0000000000000000e+00  0.0000000000000000e+00  0.0000000000000000e+00  0.0000000000000000e+00  0.0000000000000000e+00  0.0000000000000000e+00  0.0000000000000000e+00  0.0000000000000000e+00  0.0000000000000000e+00  0.0000000000000000e+00  0.0000000000000000e+00  0.0000000000000000e+00  3.3138062122643479e-03  6.5293154331729324e-03  9.7717795233195487e-03  1.3141751590426805e-02  1.6723050954943100e-02  2.0593029510639443e-02  2.4829944426845725e-02  2.9516909740100798e-02  3.4744430004465136e-02  4.0624011542549708e-02  4.7277943143442497e-02  5.4866076843232414e-02  6.3581958571854266e-02  7.3669250014073109e-02  8.5438595120568922e-02  9.9293831270018104e-02  1.1577330375291436e-01  1.3560106603858521e-01  1.5976515147859116e-01  1.8963960400088051e-01  2.2717824294409464e-01  2.7512362999500778e-01  3.3726654633798531e-01  4.1825150167219621e-01  5.2162435106500382e-01  6.4157638822198404e-01  7.4756698407591771e-01  7.8538123703223262e-01  7.4174969915198896e-01  6.5793264742566027e-01  5.7330480253924976e-01  5.0158745388482562e-01  4.4406941098250902e-01  3.9828925145732946e-01  3.6154658482104568e-01  3.3163354613964385e-01  3.0690024240789687e-01  2.8613471371807125e-01  2.6844289839334284e-01  2.5316032628509688e-01  2.3978839584557718e-01  2.2794313062472474e-01  2.1732748491230383e-01  2.0770584294474168e-01  1.9889053746917867e-01  1.9072906394696032e-01  1.8309535118282808e-01  1.7588409355106840e-01  1.6900584789576192e-01  1.6238548186885834e-01  1.5595444043300183e-01  1.4965420664270868e-01  1.4343189258524999e-01  1.3723932778073786e-01  1.3103193976850316e-01  1.2476830246515999e-01  1.1840902922948651e-01  1.1191639755362559e-01  1.0525395889758313e-01  9.8388458438119442e-02  9.1283850740471101e-02  8.3906904346000385e-02  7.6224627137690612e-02  6.8206252203416667e-02  5.9817261114081963e-02  5.1028130135493038e-02  4.1806794683699723e-02  3.2128074962925954e-02  2.1960154281423751e-02  1.1276665331615528e-02  0.0000000000000000e+00  0.0000000000000000e+00  0.0000000000000000e+00  0.0000000000000000e+00  0.0000000000000000e+00  0.0000000000000000e+00  0.0000000000000000e+00  0.0000000000000000e+00  0.0000000000000000e+00  0.0000000000000000e+00  0.0000000000000000e+00  0.0000000000000000e+00  0.0000000000000000e+00  0.0000000000000000e+00  0.0000000000000000e+00  0.0000000000000000e+00  0.0000000000000000e+00  0.0000000000000000e+00  0.0000000000000000e+00  0.0000000000000000e+00  0.0000000000000000e+00  0.0000000000000000e+00  0.0000000000000000e+00  0.0000000000000000e+00  0.0000000000000000e+00  0.0000000000000000e+00  0.0000000000000000e+00  0.0000000000000000e+00  0.0000000000000000e+00  0.0000000000000000e+00  0.0000000000000000e+00  0.0000000000000000e+00  0.0000000000000000e+00  0.0000000000000000e+00  0.0000000000000000e+00  0.0000000000000000e+00  0.0000000000000000e+00  0.0000000000000000e+00  0.0000000000000000e+00  0.0000000000000000e+00  0.0000000000000000e+00  0.0000000000000000e+00  0.0000000000000000e+00  0.0000000000000000e+00  0.0000000000000000e+00  0.0000000000000000e+00  0.0000000000000000e+00  0.0000000000000000e+00  0.0000000000000000e+00  0.0000000000000000e+00  0.0000000000000000e+00  0.0000000000000000e+00  0.0000000000000000e+00  0.0000000000000000e+00  0.0000000000000000e+00  0.0000000000000000e+00  0.0000000000000000e+00  0.0000000000000000e+00  0.0000000000000000e+00  0.0000000000000000e+00  0.0000000000000000e+00  0.0000000000000000e+00  0.0000000000000000e+00  0.0000000000000000e+00  0.0000000000000000e+00  0.0000000000000000e+00  5.3489117349785941e-03  1.0022274936924629e-02  1.4121628299473008e-02  1.7711187742731421e-02  2.0844720575838378e-02  2.3567986685080446e-02  2.5919448476171794e-02  2.7931447756356351e-02  2.9631105106083296e-02  3.1041058713894100e-02  3.2179737822610396e-02  3.3062569237831990e-02  3.3700761601856269e-02  3.4103813523052320e-02  3.4277973596370109e-02  3.4226917021211278e-02  3.3951988703480984e-02  3.3451919905667885e-02  3.2722982663022669e-02  3.1758702797699115e-02  3.0549980428665253e-02  2.9084073537279532e-02  2.7345685523432559e-02  2.5314688392848672e-02  2.2966427422709004e-02  2.0271282138435348e-02  1.7193223026664466e-02  1.3687447108214668e-02  9.7027745900347129e-03  5.1738671965739459e-03  0.0000000000000000e+00  0.0000000000000000e+00  0.0000000000000000e+00  0.0000000000000000e+00  0.0000000000000000e+00  0.0000000000000000e+00  0.0000000000000000e+00  0.0000000000000000e+00  0.0000000000000000e+00  0.0000000000000000e+00  0.0000000000000000e+00  0.0000000000000000e+00  0.0000000000000000e+00  0.0000000000000000e+00  0.0000000000000000e+00  0.0000000000000000e+00  0.0000000000000000e+00  0.0000000000000000e+00  0.0000000000000000e+00  0.0000000000000000e+00  0.0000000000000000e+00  0.0000000000000000e+00  0.0000000000000000e+00  0.0000000000000000e+00  0.0000000000000000e+00  0.0000000000000000e+00  0.0000000000000000e+00  0.0000000000000000e+00  0.0000000000000000e+00  0.0000000000000000e+00  0.0000000000000000e+00  0.0000000000000000e+00  0.0000000000000000e+00  0.0000000000000000e+00  0.0000000000000000e+00  0.0000000000000000e+00  0.0000000000000000e+00  0.0000000000000000e+00  0.0000000000000000e+00  0.0000000000000000e+00  0.0000000000000000e+00  0.0000000000000000e+00  0.0000000000000000e+00  0.0000000000000000e+00  0.0000000000000000e+00  0.0000000000000000e+00  0.0000000000000000e+00  0.0000000000000000e+00  0.0000000000000000e+00  0.0000000000000000e+00  0.0000000000000000e+00  0.0000000000000000e+00  0.0000000000000000e+00  0.0000000000000000e+00  0.0000000000000000e+00  0.0000000000000000e+00  0.0000000000000000e+00  0.0000000000000000e+00  0.0000000000000000e+00  0.0000000000000000e+00  0.0000000000000000e+00  0.0000000000000000e+00  0.0000000000000000e+00  0.0000000000000000e+00  0.0000000000000000e+00  0.0000000000000000e+00  6.4684114132370083e-03  1.2158739416453804e-02  1.7222413930537143e-02  2.1754498080820354e-02  2.5830884257654330e-02  2.9513806970416525e-02  3.2854875485228252e-02  3.5896809762374172e-02  3.8675156960248411e-02  4.1220409433902143e-02  4.3558298629583422e-02  4.5710919444156180e-02  4.7697197036377113e-02  4.9533578092326586e-02  5.1234344260107062e-02  5.2812049317384265e-02  5.4277576504886481e-02  5.5640667973039820e-02  5.6909874779606295e-02  5.8092788566888744e-02  5.9196185033687614e-02  6.0226105332615375e-02  6.1188013604979753e-02  6.2086730345883669e-02  6.2926773847294046e-02  6.3711947580756240e-02  6.4445957277999094e-02  6.5132035552767906e-02  6.5773193274806435e-02  6.6372109910246474e-02  6.6931241565198613e-02  6.7452888021260177e-02  6.7939083144873499e-02  6.8391742634013347e-02  6.8812628879644108e-02  6.9203322338243653e-02  6.9565299107784404e-02  6.9899920714730557e-02  7.0208463531307705e-02  7.0492049359452191e-02  7.0751763714614349e-02  7.0988594424007234e-02  7.1203443228537264e-02  7.1397154227814744e-02  7.1570502707180697e-02  7.1724207156954239e-02  7.1858917252040286e-02  7.1975245386557335e-02  7.2073772667319874e-02  7.2154976451194716e-02  7.2219349044057565e-02  7.2267313577033643e-02  7.2299262837699288e-02  7.2315548759608647e-02  7.2316490086375029e-02  7.2302376244940750e-02  7.2273454004246132e-02  7.2229949260058546e-02  7.2172048334216532e-02  7.2099917969935395e-02  7.2013688181834928e-02  7.1913463218873638e-02  7.1799320727246693e-02  7.1671307903788159e-02  7.1529445200677139e-02  7.1373725252036946e-02  7.1204112170113396e-02  7.1020540616568928e-02  7.0822917452184275e-02  7.0611116594034462e-02  7.0384989154101227e-02  7.0144341059954263e-02  6.9888962601127674e-02  6.9618594280591972e-02  6.9332952185361341e-02  6.9031709873407163e-02  6.8714495600095113e-02  6.8380909274812815e-02  6.8030494770086991e-02  6.7662754776840028e-02  6.7277137203521756e-02  6.6873030330623681e-02  6.6449784660568403e-02  6.6006660860616628e-02  6.5542867420700507e-02  6.5057530513698725e-02  6.4549702045911220e-02  6.4018339866524637e-02  6.3462301772601870e-02  6.2880351240516261e-02  6.2271122631670998e-02  6.1633125280928382e-02  6.0964724366409657e-02  6.0264127043173507e-02  5.9529363643267059e-02  5.8758252956012391e-02  5.7948420054029712e-02  5.7097239163240852e-02  5.6201775179756670e-02  5.5258809450031518e-02  5.4264741711423196e-02  5.3215562038868638e-02  5.2106862125839926e-02  5.0933614688697289e-02  4.9690284812622325e-02  4.8370447063298107e-02  4.6967090329060407e-02  4.5472116367061770e-02  4.3876308391444033e-02  4.2169218588140087e-02  4.0338799202696528e-02  3.8371135769529843e-02  3.6250087803088200e-02  3.3956908025073500e-02  3.1469590782867776e-02  2.8762250082115488e-02  2.5803553661320224e-02  2.2557200163232715e-02  1.8977977540455441e-02  1.5011453561414943e-02  1.0590841732542244e-02  5.6317005774182624e-03  5.4282573623159738e-03  1.0662187555834257e-02  1.5705926443446046e-02  2.0539896030706065e-02  2.5148032532595836e-02  2.9517549559154144e-02  3.3638487007482176e-02  3.7503545859187755e-02  4.1109353019027739e-02  4.4452413448506665e-02  4.7531937046546575e-02  5.0352244355932448e-02  5.2912995379126880e-02  5.5219668127879935e-02  5.7275187812537535e-02  5.9085030783393493e-02  6.0654346465601493e-02  6.1987036281578665e-02  6.3087351181387821e-02  6.3959352600432021e-02  6.4607318572113909e-02  6.5033635930352010e-02  6.5241315048939000e-02  6.5232661839084050e-02  6.5010520725847482e-02  6.4576916069434553e-02  6.3934982546896418e-02  6.3087465683853039e-02  6.2038528941171511e-02  6.0792691485167118e-02  5.9356032278182536e-02  5.7735747984468899e-02  5.5940801736057984e-02  5.3981556193590567e-02  5.1870165432220894e-02  4.9620196242379677e-02  4.7246897285878837e-02  4.4766737741115635e-02  4.2197209056785569e-02  3.9556464840568691e-02  3.6863067554979659e-02  3.4135188216188952e-02  3.1390778429974550e-02  2.8646121465331464e-02  2.5915988523973643e-02  2.3213520514077098e-02  2.0548496238615582e-02  1.7927320405406958e-02  1.5352288267457232e-02  1.2820161005130830e-02  1.0320785098336591e-02  7.8341767878727063e-03  5.3271629085641474e-03  2.7443363300137060e-03  1.0000000000000000e+00  1.0000000000000000e+00  1.0000000000000000e+00  9.9999999999999989e-01  1.0000000000000000e+00  9.9999999999999989e-01  1.0000000000000000e+00  1.0000000000000000e+00  1.0000000000000000e+00  1.0000000000000000e+00  1.0000000000000000e+00  9.9999999999999989e-01  1.0000000000000000e+00  1.0000000000000000e+00  1.0000000000000000e+00  1.0000000000000000e+00  9.9999999999999989e-01  1.0000000000000002e+00  1.0000000000000000e+00  9.9999999999999989e-01  1.0000000000000000e+00  9.9999999999999989e-01  9.9999999999999989e-01  9.9999999999999989e-01  1.0000000000000000e+00  1.0000000000000000e+00  9.9999999999999989e-01  1.0000000000000000e+00  9.9999999999999989e-01  1.0000000000000000e+00  1.0000000000000000e+00  9.9999999999999989e-01  9.9999999999999978e-01  1.0000000000000000e+00  9.9999999999999989e-01  1.0000000000000000e+00  1.0000000000000000e+00  1.0000000000000000e+00  9.9999999999999989e-01  1.0000000000000000e+00  1.0000000000000000e+00  1.0000000000000000e+00  1.0000000000000000e+00  1.0000000000000000e+00  9.9999999999999989e-01  1.0000000000000000e+00  1.0000000000000000e+00  1.0000000000000000e+00  1.0000000000000000e+00  1.0000000000000000e+00  1.0000000000000000e+00  1.0000000000000000e+00  9.9999999999999989e-01  1.0000000000000000e+00  1.0000000000000000e+00  1.0000000000000000e+00  9.9999999999999989e-01  1.0000000000000000e+00  1.0000000000000000e+00  1.0000000000000000e+00  1.0000000000000000e+00  1.0000000000000000e+00  1.0000000000000000e+00  1.0000000000000002e+00  1.0000000000000002e+00  9.9999999999999989e-01  9.9999999999999989e-01  1.0000000000000000e+00  1.0000000000000002e+00  1.0000000000000000e+00  1.0000000000000000e+00  1.0000000000000000e+00  1.0000000000000002e+00  9.9999999999999989e-01  1.0000000000000000e+00  1.0000000000000000e+00  1.0000000000000000e+00  1.0000000000000000e+00  1.0000000000000000e+00  9.9999999999999989e-01  1.0000000000000000e+00  9.9999999999999989e-01  1.0000000000000000e+00  1.0000000000000000e+00  1.0000000000000000e+00  1.0000000000000000e+00  1.0000000000000000e+00  1.0000000000000000e+00  1.0000000000000002e+00  9.9999999999999989e-01  1.0000000000000000e+00  1.0000000000000000e+00  1.0000000000000000e+00  9.9999999999999989e-01  1.0000000000000000e+00  1.0000000000000000e+00  1.0000000000000000e+00  9.9999999999999989e-01  1.0000000000000000e+00  9.9999999999999989e-01  1.0000000000000000e+00  1.0000000000000000e+00  9.9999999999999989e-01  1.0000000000000000e+00  1.0000000000000000e+00  1.0000000000000000e+00  1.0000000000000000e+00  1.0000000000000000e+00  1.0000000000000000e+00  1.0000000000000000e+00  1.0000000000000000e+00  1.0000000000000000e+00  1.0000000000000000e+00  9.9999999999999989e-01  1.0000000000000000e+00  1.0000000000000000e+00  1.0000000000000000e+00  1.0000000000000000e+00  1.0000000000000000e+00  1.0000000000000000e+00  1.0000000000000000e+00  9.9999999999999989e-01  1.0000000000000000e+00  1.0000000000000000e+00  9.9999999999999989e-01  1.0000000000000000e+00  9.9999999999999989e-01  1.0000000000000000e+00  9.9999999999999989e-01  1.0000000000000000e+00  1.0000000000000000e+00  1.0000000000000000e+00  1.0000000000000000e+00  1.0000000000000000e+00  1.0000000000000000e+00  1.0000000000000002e+00  1.0000000000000000e+00  1.0000000000000000e+00  9.9999999999999989e-01  1.0000000000000002e+00  1.0000000000000002e+00  1.0000000000000000e+00  9.9999999999999989e-01  1.0000000000000000e+00  1.0000000000000000e+00  1.0000000000000000e+00  1.0000000000000000e+00  1.0000000000000000e+00  1.0000000000000000e+00  9.9999999999999989e-01  1.0000000000000000e+00  1.0000000000000000e+00  1.0000000000000000e+00  1.0000000000000000e+00  1.0000000000000000e+00  1.0000000000000000e+00  9.9999999999999989e-01  1.0000000000000000e+00  1.0000000000000000e+00  9.9999999999999989e-01  1.0000000000000000e+00  1.0000000000000000e+00  1.0000000000000000e+00  1.0000000000000000e+00  9.9999999999999978e-01  1.0000000000000000e+00  1.0000000000000002e+00  9.9999999999999989e-01  1.0000000000000000e+00  9.9999999999999989e-01  1.0000000000000000e+00  1.0000000000000000e+00  9.9999999999999989e-01  1.0000000000000000e+00  9.9999999999999989e-01  1.0000000000000000e+00  1.0000000000000000e+00  1.0000000000000000e+00  1.0000000000000000e+00  9.9999999999999989e-01  1.0000000000000000e+00  1.0000000000000000e+00  9.9999999999999989e-01  1.0000000000000000e+00  9.9999999999999989e-01  1.0000000000000000e+00  9.9999999999999989e-01  1.0000000000000000e+00  1.0000000000000000e+00  1.0000000000000000e+00  9.9999999999999989e-01  1.0000000000000000e+00  5.8574394253162874e-02  2.1210786600677095e-01  6.1308925875223561e-02  5.3688314662688745e-02  1.5895797459810909e-01  9.1287884822695523e-02  4.3426923202708460e-02  6.5301384468603937e-02  6.5770543368005155e-02  2.9539705818260098e-01  4.4707260614503717e-02  1.2187637872434130e-01  6.9021767877331205e-02  6.5382367755414894e-02  6.0831510271450222e-02  7.0874808838900141e-02  6.8204646649100448e-02  2.9902911154238050e-02  3.9503422403069713e-03  6.2624673706869791e-02  4.4177533390361463e-02  7.5793705302008288e-03  2.0489588570107997e-01  5.4989751039284149e-02  7.1797395632159103e-02  3.5129331021579002e-02  1.9118089213880224e-02  8.7882666922075844e-02  6.3554456478172525e-02  9.7503901025111444e-04  5.2263501397993772e-03  4.1961607521161681e-01  5.6355935786318798e-02  5.7536393938277260e-02  3.7366537870539410e-02  1.2029697616625556e-03  9.4927865136397655e-04  6.3734397731212478e-02  4.6720829999014987e-02  1.4884380813995125e-03  3.9255437167052976e-03  6.9491633282004389e-02  7.2201033525593733e-02  9.9037764482926716e-03  2.4857295867522375e-02  5.3657921107319179e-03  2.4210313377774590e-02  4.2927877007237205e-03  3.7116017565004180e-03  4.2251967801291467e-03  3.9779117667172554e-03  2.2297717329122786e-02  6.4727745261482478e-02  2.4550722541428738e-01  1.1543460387035931e-02  5.3035254718020126e-02  1.7955062757505671e-01  2.4230703581513902e-02  1.4071326441667156e-01  6.5524026588125112e-04  3.6947457395602606e-01  6.7436664449299177e-04  4.9035073697769584e-02  2.7538055775288454e-02  3.9813375760515871e-02  4.9413121838167054e-02  3.0081547227250094e-02  3.0431953298686601e-02  2.7783475864461272e-02  6.3324715582049884e-02  6.7103907378150585e-02  7.0046981461824198e-02  6.9976913892702368e-04  6.7082724191928886e-02  7.0259446678092766e-02  2.1225012552554866e-03  7.2313159424694073e-02  7.0911302301311444e-02  7.1961073757644781e-04  1.7490655970976024e-03  4.2243171380069739e-03  4.4340159230510864e-03  4.8248960412457919e-03  8.7007431913120378e-03  4.2163899556775155e-03  5.1055638714004523e-03  6.2596242274663483e-01  1.1339256855660888e-02  4.6230354950279289e-04  1.62173910296