<?xml version="1.0"?>
<VTKFile type="UnstructuredGrid"  version="0.1"  >
<UnstructuredGrid>
<Piece  NumberOfPoints="8279" NumberOfCells="15885">
<Points>
<DataArray  type="Float64"  NumberOfComponents="3"  format="ascii">0 0 0  450 0 0  450 225 0  0 225 0  224 0 0  226 0 0  225 1 0  226 1 0  227 0.5 0  228 0 0  230 0 0  229 1 0  230 1 0  234 0.5 0  238 0 0  240 0 0  239 1 0  240 1 0  450 9.782608695661354 0  450 19.56521739132493 0  450 29.34782608698428 0  450 39.13043478263055 0  450 48.91304347827662 0  450 58.69565217392267 0  450 68.47826086956874 0  450 78.26086956521479 0  450 88.04347826086087 0  450 97.82608695650693 0  450 107.608695652153 0  450 117.3913043478299 0  450 127.1739130435357 0  450 136.9565217391855 0  450 146.7391304348315 0  450 156.5217391304776 0  450 166.3043478261236 0  450 176.0869565217697 0  450 185.8695652174157 0  450 195.6521739130618 0  450 205.4347826087078 0  450 215.2173913043539 0  440.217391304352 225 0  430.4347826087039 225 0  420.6521739130558 225 0  410.8695652174077 225 0  401.0869565217596 225 0  391.3043478261116 225 0  381.5217391304635 225 0  371.7391304348154 225 0  361.9565217391673 225 0  352.1739130435193 225 0  342.3913043478713 225 0  332.6086956522231 225 0  322.8260869565751 225 0  313.043478260927 225 0  303.2608695652789 225 0  293.4782608696308 225 0  283.6956521739828 225 0  273.9130434783347 225 0  264.1304347826866 225 0  254.3478260870386 225 0  244.5652173913905 225 0  234.7826086957424 225 0  225.0000000000888 225 0  215.2173913043845 225 0  205.4347826086747 225 0  195.6521739129687 225 0  185.8695652173134 225 0  176.0869565216654 225 0  166.3043478260173 225 0  156.5217391303692 225 0  146.7391304347212 225 0  136.956521739073 225 0  127.173913043425 225 0  117.3913043477769 225 0  107.6086956521288 225 0  97.82608695648076 225 0  88.04347826083261 225 0  78.26086956518463 225 0  68.47826086953654 225 0  58.69565217388845 225 0  48.91304347824035 225 0  39.13043478259226 225 0  29.34782608694422 225 0  19.56521739129619 225 0  9.782608695648094 225 0  0 215.2173913043519 0  0 205.4347826087039 0  0 195.6521739130558 0  0 185.8695652174077 0  0 176.0869565217596 0  0 166.3043478261116 0  0 156.5217391304635 0  0 146.7391304348154 0  0 136.9565217391674 0  0 127.1739130435193 0  0 117.3913043478712 0  0 107.6086956521923 0  0 97.82608695648437 0  0 88.0434782608327 0  0 78.26086956518458 0  0 68.47826086953651 0  0 58.69565217388845 0  0 48.91304347824038 0  0 39.13043478259232 0  0 29.34782608694422 0  0 19.56521739129613 0  0 9.782608695648094 0  224.0020089923861 0.063355731562034 0  224.0078669237896 0.1251876954392177 0  224.0173189540956 0.1853050512541301 0  224.0301104026608 0.243545003999721 0  224.0459888465302 0.2997711111084815 0  224.0647058707711 0.3538712927462628 0  224.0860185776573 0.4057560345977113 0  224.1096908286717 0.4553565410189064 0  224.1354942695903 0.5026229621582694 0  224.1632091334853 0.5475226440227238 0  224.1926249250355 0.5900385481695689 0  224.2235407638306 0.6301674813628185 0  224.2557657849086 0.6679187323973781 0  224.2891195163637 0.7033128308121627 0  224.3234314721495 0.736379675929636 0  224.3585416405058 0.7671578540528868 0  224.3943001347868 0.7956932029876407 0  224.4305670884679 0.8220378089017952 0  224.4672124255662 0.8462490180372396 0  224.5041156045838 0.8683885457459335 0  224.5411652540955 0.8885216237947197 0  224.5782590182344 0.9067163527252478 0  224.6153028595457 0.9230428538948069 0  224.6522110523273 0.9375728493705031 0  224.6889055603574 0.9503790031474065 0  224.72531568381 0.961534464509318 0  224.7613777251139 0.9711124599798758 0  224.7970345748618 0.9791859048201496 0  224.8322353596756 0.9858270768531486 0  224.8669348413503 0.9911072916458271 0  224.9010933583037 0.9950967170221953 0  224.9346762707545 0.997864124216049 0  224.9676536620218 0.9994767202988784 0  225.0323463381051 0.99947672029477 0  225.0653237301236 0.9978641241585631 0  225.0989066431223 0.9950967168804671 0  225.1330651602428 0.9911072914319439 0  225.1677646419726 0.9858270765726634 0  225.2029654269951 0.979185904435247 0  225.2386222604036 0.9711124635385281 0  225.2746843192525 0.9615344636344383 0  225.3110944429274 0.9503790020721721 0  225.3477889498758 0.9375728485532481 0  225.3846971416895 0.9230428533800188 0  225.4217409837351 0.9067163518091972 0  225.4588347483695 0.888521622521743 0  225.4958843983252 0.8683885440847672 0  225.5327875773925 0.846249016174439 0  225.5694329140487 0.8220378071585059 0  225.6056998679296 0.7956932009198679 0  225.641458362852 0.7671578512452597 0  225.6765685310523 0.736379672987914 0  225.7108804867128 0.7033128277025616 0  225.7442342180933 0.6679187290524371 0  225.7764592391041 0.6301674777468723 0  225.8073750777669 0.5900385443348745 0  225.8367908685816 0.5475226408638091 0  225.8645057322388 0.502622959012232 0  225.8903091726418 0.4553565384507763 0  225.9139814234573 0.4057560320869432 0  225.935294130113 0.3538712904094632 0  225.9540111540606 0.2997711092283469 0  225.9698895977127 0.2435450025123902 0  225.9826810461417 0.1853050499957777 0  225.9921330763121 0.1251876946332835 0  225.9979910076399 0.06335573115285377 0  9.724657309557664 0 0  19.02990561489478 0 0  27.93382974437208 0 0  36.4537404975454 0 0  44.60620016225933 0 0  52.40705568240647 0 0  59.87147154317288 0 0  67.01395653385165 0 0  73.84839875777189 0 0  80.38807968606275 0 0  86.64571284056197 0 0  92.63346328245085 0 0  98.36297046378698 0 0  103.8453721348713 0 0  109.0913252627834 0 0  114.1110282135623 0 0  118.914238357087 0 0  123.5102929000238 0 0  127.9081253730336 0 0  132.1162857391113 0 0  136.1429549088198 0 0  139.9959585537756 0 0  143.6827874356201 0 0  147.2106089691988 0 0  150.5862812955824 0 0  153.8163648770172 0 0  156.9071395455719 0 0  159.8646136931983 0 0  162.6945358741549 0 0  165.4024075759797 0 0  167.9934921069113 0 0  170.4728273952023 0 0  172.8452319994138 0 0  175.1153183143408 0 0  177.2874990632585 0 0  179.3659966326073 0 0  181.3548516892633 0 0  183.2579303976732 0 0  185.0789313485823 0 0  186.8213956698771 0 0  188.4887097667209 0 0  190.0841148690362 0 0  191.6107125473505 0 0  193.0714699966116 0 0  194.4692272649741 0 0  195.8067009978392 0 0  197.0864915810537 0 0  198.3110864738335 0 0  199.482866160831 0 0  200.6041087807559 0 0  201.6769937811462 0 0  202.7036067754679 0 0  203.6859433789877 0 0  204.6259132873555 0 0  205.5253433791829 0 0  206.3859826682087 0 0  207.2095035890445 0 0  207.997507257115 0 0  208.7515253637376 0 0  209.4730237734672 0 0  210.1634049499469 0 0  210.8240109907306 0 0  211.4561260143591 0 0  212.060978785667 0 0  212.6397450141027 0 0  213.1935499460044 0 0  213.7234700471982 0 0  214.2305354641678 0 0  214.7157318316905 0 0  215.1800023503719 0 0  215.6242495509076 0 0  216.0493371210115 0 0  216.4560911509623 0 0  216.845302440869 0 0  217.21772760454 0 0  217.5740906239334 0 0  217.9150841433838 0 0  218.241371125184 0 0  218.5535858412163 0 0  218.8523351331747 0 0  219.1381997902312 0 0  219.4117355022302 0 0  219.6734739944899 0 0  219.9239241281105 0 0  220.1635726506841 0 0  220.3928854518087 0 0  220.61230834362 0 0  220.8222678864888 0 0  221.0231721146276 0 0  221.2154116317471 0 0  221.3993601212488 0 0  221.5753751763791 0 0  221.7437989502984 0 0  221.9049588503808 0 0  222.0591681367364 0 0  222.2067265977104 0 0  222.3479210690713 0 0  222.4830260263524 0 0  222.6123041189778 0 0  222.7360065812347 0 0  222.8543739478548 0 0  222.9676363098526 0 0  223.0760138277523 0 0  223.1797171723988 0 0  223.2789479251624 0 0  223.3738989996738 0 0  223.4647549720281 0 0  223.5516924491118 0 0  223.6348804347739 0 0  223.7144806430749 0 0  223.7906478148444 0 0  223.8635299801972 0 0  223.9332688577469 0 0  228.0020089923861 0.063355731562034 0  228.0078669237896 0.1251876954392177 0  228.0173189540956 0.1853050512541301 0  228.0301104026608 0.243545003999721 0  228.0459888465302 0.2997711111084815 0  228.0647058707711 0.3538712927462628 0  228.0860185776573 0.4057560345977113 0  228.1096908286717 0.4553565410189064 0  228.1354942695903 0.5026229621582694 0  228.1632091334853 0.5475226440227238 0  228.1926249250355 0.5900385481695689 0  228.2235407638306 0.6301674813628185 0  228.2557657849086 0.6679187323973781 0  228.2891195163637 0.7033128308121627 0  228.3234314721495 0.736379675929636 0  228.3585416405058 0.7671578540528868 0  228.3943001347868 0.7956932029876407 0  228.4305670884679 0.8220378089017952 0  228.4672124255662 0.8462490180372396 0  228.5041156045838 0.8683885457459335 0  228.5411652540955 0.8885216237947197 0  228.5782590182344 0.9067163527252478 0  228.6153028595457 0.9230428538948069 0  228.6522110523273 0.9375728493705031 0  228.6889055603574 0.9503790031474065 0  228.72531568381 0.961534464509318 0  228.7613777251139 0.9711124599798758 0  228.7970345748618 0.9791859048201496 0  228.8322353596756 0.9858270768531486 0  228.8669348413503 0.9911072916458271 0  228.9010933583037 0.9950967170221953 0  228.9346762707545 0.997864124216049 0  228.9676536620218 0.9994767202988784 0  229.0323463381051 0.99947672029477 0  229.0653237301236 0.9978641241585631 0  229.0989066431223 0.9950967168804671 0  229.1330651602428 0.9911072914319439 0  229.1677646419726 0.9858270765726634 0  229.2029654269951 0.979185904435247 0  229.2386222604036 0.9711124635385281 0  229.2746843192525 0.9615344636344383 0  229.3110944429274 0.9503790020721721 0  229.3477889498758 0.9375728485532481 0  229.3846971416895 0.9230428533800188 0  229.4217409837351 0.9067163518091972 0  229.4588347483695 0.888521622521743 0  229.4958843983252 0.8683885440847672 0  229.5327875773925 0.846249016174439 0  229.5694329140487 0.8220378071585059 0  229.6056998679296 0.7956932009198679 0  229.641458362852 0.7671578512452597 0  229.6765685310523 0.736379672987914 0  229.7108804867128 0.7033128277025616 0  229.7442342180933 0.6679187290524371 0  229.7764592391041 0.6301674777468723 0  229.8073750777669 0.5900385443348745 0 
[...]
<PointData  Scalars="foodini"> 
<DataArray  type="Float64"  Name="foodini"  format="ascii">-1.0000000000000000e+00  1.0000000000000000e+00  1.0000000000000002e+00  -9.9999999999999989e-01  0.0000000000000000e+00  0.0000000000000000e+00  0.0000000000000000e+00  -1.6353049314403263e-05  1.0149263896831642e-03  0.0000000000000000e+00  0.0000000000000000e+00  0.0000000000000000e+00  6.1890982853489741e-03  2.6003127641085883e-02  0.0000000000000000e+00  0.0000000000000000e+00  0.0000000000000000e+00  2.0938158024298169e-02  1.0000000000000000e+00  1.0000000000000002e+00  1.0000000000000000e+00  1.0000000000000000e+00  1.0000000000000000e+00  1.0000000000000000e+00  1.0000000000000000e+00  1.0000000000000000e+00  1.0000000000000000e+00  9.9999999999999989e-01  1.0000000000000000e+00  9.9999999999999978e-01  1.0000000000000000e+00  1.0000000000000000e+00  1.0000000000000000e+00  1.0000000000000000e+00  9.9999999999999989e-01  1.0000000000000002e+00  1.0000000000000000e+00  9.9999999999999989e-01  1.0000000000000000e+00  1.0000000000000000e+00  9.5649743483885163e-01  9.1299494801844927e-01  8.6949262039937369e-01  8.2599053394461031e-01  7.8248877404949779e-01  7.3898743036706582e-01  6.9548659745471475e-01  6.5198637521003466e-01  6.0848686941149632e-01  5.6498819129003353e-01  5.2149045740915623e-01  4.7799378817976579e-01  4.3449830809572704e-01  3.9100414059572725e-01  3.4751140931929869e-01  3.0402023242587295e-01  2.6053072151958323e-01  2.1704297577201473e-01  1.7355708135564160e-01  1.3007310600232522e-01  8.6591098026901514e-02  4.3111083491247600e-02  -3.6693453305216032e-04  -4.3842976188332633e-02  -8.7317083503963486e-02  -1.3078931902939417e-01  -1.7425976360260856e-01  -2.1772851191386389e-01  -2.6119567077673894e-01  -3.0466135520932014e-01  -3.4812568451036346e-01  -3.9158877865083069e-01  -4.3505075793107373e-01  -4.7851173924521889e-01  -5.2197183418958126e-01  -5.6543114869562694e-01  -6.0888978187478382e-01  -6.5234782603253316e-01  -6.9580536694831108e-01  -7.3926248295452657e-01  -7.8271924713244190e-01  -8.2617572665122896e-01  -8.6963198414329712e-01  -9.1308807852869378e-01  -9.5654406590552588e-01  -9.9999999999999989e-01  -1.0000000000000000e+00  -9.9999999999999989e-01  -1.0000000000000000e+00  -1.0000000000000000e+00  -1.0000000000000000e+00  -9.9999999999999989e-01  -1.0000000000000000e+00  -9.9999999999999989e-01  -1.0000000000000000e+00  -1.0000000000000000e+00  -1.0000000000000000e+00  -9.9999999999999989e-01  -9.9999999999999989e-01  -1.0000000000000000e+00  -9.9999999999999989e-01  -1.0000000000000000e+00  -9.9999999999999989e-01  -9.9999999999999989e-01  -1.0000000000000000e+00  -1.0000000000000002e+00  -1.0000000000000000e+00  0.0000000000000000e+00  0.0000000000000000e+00  0.0000000000000000e+00  0.0000000000000000e+00  0.0000000000000000e+00  0.0000000000000000e+00  0.0000000000000000e+00  0.0000000000000000e+00  0.0000000000000000e+00  0.0000000000000000e+00  0.0000000000000000e+00  0.0000000000000000e+00  0.0000000000000000e+00  0.0000000000000000e+00  0.0000000000000000e+00  0.0000000000000000e+00  0.0000000000000000e+00  0.0000000000000000e+00  0.0000000000000000e+00  0.0000000000000000e+00  0.0000000000000000e+00  0.0000000000000000e+00  0.0000000000000000e+00  0.0000000000000000e+00  0.0000000000000000e+00  0.0000000000000000e+00  0.0000000000000000e+00  0.0000000000000000e+00  0.0000000000000000e+00  0.0000000000000000e+00  0.0000000000000000e+00  0.0000000000000000e+00  0.0000000000000000e+00  0.0000000000000000e+00  0.0000000000000000e+00  0.0000000000000000e+00  0.0000000000000000e+00  0.0000000000000000e+00  0.0000000000000000e+00  0.0000000000000000e+00  0.0000000000000000e+00  0.0000000000000000e+00  0.0000000000000000e+00  0.0000000000000000e+00  0.0000000000000000e+00  0.0000000000000000e+00  0.0000000000000000e+00  0.0000000000000000e+00  0.0000000000000000e+00  0.0000000000000000e+00  0.0000000000000000e+00  0.0000000000000000e+00  0.0000000000000000e+00  0.0000000000000000e+00  0.0000000000000000e+00  0.0000000000000000e+00  0.0000000000000000e+00  0.0000000000000000e+00  0.0000000000000000e+00  0.0000000000000000e+00  0.0000000000000000e+00  0.0000000000000000e+00  0.0000000000000000e+00  0.0000000000000000e+00  0.0000000000000000e+00  0.0000000000000000e+00  -9.5680945997724542e-01  -9.1548183320884147e-01  -8.7593693191095590e-01  -8.3809798449452744e-01  -8.0189152130118713e-01  -7.6724723544251872e-01  -7.3409783951722596e-01  -7.0237894985806271e-01  -6.7202893229263083e-01  -6.4298884206834239e-01  -6.1520225207391155e-01  -5.8861516782776280e-01  -5.6317592573260356e-01  -5.3883508840068473e-01  -5.1554535119862166e-01  -4.9326144392941507e-01  -4.7194005358730595e-01  -4.5153973134058134e-01  -4.3202081991348795e-01  -4.1334536357440294e-01  -3.9547704442577225e-01  -3.7838112069090996e-01  -3.6202433690868607e-01  -3.4637487220050078e-01  -3.3140227821766233e-01  -3.1707742552911772e-01  -3.0337243128392466e-01  -2.9026061613975340e-01  -2.7771645303133918e-01  -2.6571551021566947e-01  -2.5423441230739630e-01  -2.4325078428458580e-01  -2.3274321975131981e-01  -2.2269123189504342e-01  -2.1307521038884872e-01  -2.0387639510598324e-01  -1.9507682720293040e-01  -1.8665932178108358e-01  -1.7860743436496779e-01  -1.7090541757352029e-01  -1.6353820864074589e-01  -1.5649138505575363e-01  -1.4975114350599761e-01  -1.4330427320369110e-01  -1.3713812509655485e-01  -1.3124059263095519e-01  -1.2560008445763823e-01  -1.2020550681141061e-01  -1.1504623593556766e-01  -1.1011210001597259e-01  -1.0539335955251281e-01  -1.0088068935849749e-01  -9.6565157958212147e-02  -9.2438212953912607e-02  -8.8491663894555733e-02  -8.4717662311251524e-02  -8.1108694264604236e-02  -7.7657557889573611e-02  -7.4357355268364914e-02  -7.1201474366243037e-02  -6.8183580607759142e-02  -6.5297601626765789e-02  -6.2537716632482795e-02  -5.9898344886437027e-02  -5.7374135266131714e-02  -5.4959954234065966e-02  -5.2650878556555779e-02  -5.0442182741912360e-02  -4.8329332342532928e-02  -4.6307974240493051e-02  -4.4373925368976136e-02  -4.2523167460252899e-02  -4.0751838474809655e-02  -3.9056229835197062e-02  -3.7432758373065513e-02  -3.5877993332010694e-02  -3.4388614445222530e-02  -3.2961423306927404e-02  -3.1593337023051143e-02  -3.0281375502438927e-02  -2.9022652986086073e-02  -2.7814376932251559e-02  -2.6653835522112437e-02  -2.5538397707938792e-02  -2.4465501033658400e-02  -2.3432641793058505e-02  -2.2437366644929447e-02  -2.1477275192471168e-02  -2.0550004482190465e-02  -1.9653218363264731e-02  -1.8784595332474566e-02  -1.7941829423373436e-02  -1.7122596002383011e-02  -1.6324575088599861e-02  -1.5545406528675051e-02  -1.4782678671084716e-02  -1.4033904727345593e-02  -1.3296550860323754e-02  -1.2567935192360175e-02  -1.1845254186712345e-02  -1.1125538686944757e-02  -1.0405577770332004e-02  -9.6819956555961109e-03  -8.9510179833194401e-03  -8.2084899021392307e-03  -7.4498681907841291e-03  -6.6700875505653883e-03  -5.8633792807189526e-03  -5.0230746638773574e-03  -4.1417731678802371e-03  -3.2105131198891823e-03  -2.2192568871991429e-03  -1.1557178956109375e-03  0.0000000000000000e+00  0.0000000000000000e+00  0.0000000000000000e+00  0.0000000000000000e+00  0.0000000000000000e+00  0.0000000000000000e+00  0.0000000000000000e+00  0.0000000000000000e+00  0.0000000000000000e+00  0.0000000000000000e+00  0.0000000000000000e+00  0.0000000000000000e+00  0.0000000000000000e+00  0.0000000000000000e+00  0.0000000000000000e+00  0.0000000000000000e+00  0.0000000000000000e+00  0.0000000000000000e+00  0.0000000000000000e+00  0.0000000000000000e+00  0.0000000000000000e+00  0.0000000000000000e+00  0.0000000000000000e+00  0.0000000000000000e+00  0.0000000000000000e+00  0.0000000000000000e+00  0.0000000000000000e+00  0.0000000000000000e+00  0.0000000000000000e+00  0.0000000000000000e+00  0.0000000000000000e+00  0.0000000000000000e+00  0.0000000000000000e+00  0.0000000000000000e+00  0.0000000000000000e+00  0.0000000000000000e+00  0.0000000000000000e+00  0.0000000000000000e+00  0.0000000000000000e+00  0.0000000000000000e+00  0.0000000000000000e+00  0.0000000000000000e+00  0.0000000000000000e+00  0.0000000000000000e+00  0.0000000000000000e+00  0.0000000000000000e+00  0.0000000000000000e+00  0.0000000000000000e+00  0.0000000000000000e+00  0.0000000000000000e+00  0.0000000000000000e+00  0.0000000000000000e+00  0.0000000000000000e+00  0.0000000000000000e+00  0.0000000000000000e+00  0.0000000000000000e+00  0.0000000000000000e+00  0.0000000000000000e+00  0.0000000000000000e+00  0.0000000000000000e+00  0.0000000000000000e+00  0.0000000000000000e+00  0.0000000000000000e+00  0.0000000000000000e+00  0.0000000000000000e+00  0.0000000000000000e+00  8.8017866154470393e-05  1.6736400670466976e-04  2.4106747967139438e-04  3.1084433648456364e-04  3.7774373747525230e-04  4.4237040388906345e-04  5.0500638059305534e-04  5.6569022857029668e-04  6.2428827798803035e-04  6.8053174138434092e-04  7.3404867761277433e-04  7.8438065616708160e-04  8.3099752398336450e-04  8.7329732820565318e-04  9.1061221140378390e-04  9.4222904789965489e-04  9.6736507799510493e-04  9.8514808499631872e-04  9.9467582104149584e-04  9.9492534167941894e-04  9.8480509421745659e-04  9.6312696016652845e-04  9.2859818314027604e-04  8.7981920485636625e-04  8.1526964148381201e-04  7.3331905019264525e-04  6.3224419605570630e-04  5.1024402369769417e-04  3.6548924915461614e-04  1.9624260786406817e-04  0.0000000000000000e+00  0.0000000000000000e+00  0.0000000000000000e+00  0.0000000000000000e+00  0.0000000000000000e+00  0.0000000000000000e+00  0.0000000000000000e+00  0.0000000000000000e+00  0.0000000000000000e+00  0.0000000000000000e+00  0.0000000000000000e+00  0.0000000000000000e+00  0.0000000000000000e+00  0.0000000000000000e+00  0.0000000000000000e+00  0.0000000000000000e+00  0.0000000000000000e+00  0.0000000000000000e+00  0.0000000000000000e+00  0.0000000000000000e+00  0.0000000000000000e+00  0.0000000000000000e+00  0.0000000000000000e+00  0.0000000000000000e+00  0.0000000000000000e+00  0.0000000000000000e+00  0.0000000000000000e+00  0.0000000000000000e+00  0.0000000000000000e+00  0.0000000000000000e+00  0.0000000000000000e+00  0.0000000000000000e+00  0.0000000000000000e+00  0.0000000000000000e+00  0.0000000000000000e+00  0.0000000000000000e+00  0.0000000000000000e+00  0.0000000000000000e+00  0.0000000000000000e+00  0.0000000000000000e+00  0.0000000000000000e+00  0.0000000000000000e+00  0.0000000000000000e+00  0.0000000000000000e+00  0.0000000000000000e+00  0.0000000000000000e+00  0.0000000000000000e+00  0.0000000000000000e+00  0.0000000000000000e+00  0.0000000000000000e+00  0.0000000000000000e+00  0.0000000000000000e+00  0.0000000000000000e+00  0.0000000000000000e+00  0.0000000000000000e+00  0.0000000000000000e+00  0.0000000000000000e+00  0.0000000000000000e+00  0.0000000000000000e+00  0.0000000000000000e+00  0.0000000000000000e+00  0.0000000000000000e+00  0.0000000000000000e+00  0.0000000000000000e+00  0.0000000000000000e+00  0.0000000000000000e+00  1.4595034182460101e-03  2.7486031537888615e-03  3.9046104679412732e-03  4.9505066740878822e-03  5.9042356102210697e-03  6.7801311490958216e-03  7.5897168874426435e-03  8.3422446662418225e-03  9.0454108863128983e-03  9.7055250905407186e-03  1.0327902939336608e-02  1.0916990942469177e-02  1.1476493884638212e-02  1.2009654876760097e-02  1.2519207369963408e-02  1.3007488748031041e-02  1.3476544919944284e-02  1.3928160398742730e-02  1.4363849907508249e-02  1.4784984909168065e-02  1.5192747003445991e-02  1.5588176578110345e-02  1.5972219180124519e-02  1.6345668222363254e-02  1.6709269030564976e-02  1.7063667807120146e-02  1.7409437324629858e-02  1.7747097367456954e-02  1.8077108775116250e-02  1.8399889652593395e-02  1.8715809480828904e-02  1.9025198688489453e-02  1.9328357035980757e-02  1.9625552419209401e-02  1.9917024680883421e-02  2.0202985018766814e-02  2.0483627715521081e-02  2.0759120047734017e-02  2.1029614708459401e-02  2.1295243963975308e-02  2.1556124289460594e-02  2.1812357255671020e-02  2.2064030027059263e-02  2.2311218090028832e-02  2.2553981520901833e-02  2.2792371000928187e-02  2.3026426080598614e-02  2.3256173870099223e-02  2.3481633085405573e-02  2.3702811858616547e-02  2.3919708941135230e-02  2.4132313628329752e-02  2.4340606076003819e-02  2.4544558016702748e-02  2.4744131686964814e-02  2.4939281426298567e-02  2.5129948982826739e-02  2.5316073698482655e-02  2.5497578401828608e-02  2.5674384588088212e-02  2.5846398824938277e-02  2.6013520960153993e-02  2.6175638945332862e-02  2.6332630102775395e-02  2.6484363368230783e-02  2.6630692875296964e-02  2.6771466034279476e-02  2.6906515886507758e-02  2.7035658872081425e-02  2.7158706890019341e-02  2.7275449995606171e-02  2.7385656934787339e-02  2.7489100125006473e-02  2.7585509875339278e-02  2.7674624749674318e-02  2.7756141410965333e-02  2.7829745863429404e-02  2.7895095308300765e-02  2.7951833058573312e-02  2.7999562438386600e-02  2.8037871626493644e-02  2.8066306912605189e-02  2.8084387768288230e-02  2.8091593656000936e-02  2.8087365600320487e-02  2.8071104915122110e-02  2.8042141637727429e-02  2.7999806133931413e-02  2.7943319268024548e-02  2.7871865505197393e-02  2.7784554582331172e-02  2.7680418469429573e-02  2.7558408026100129e-02  2.7417388744388427e-02  2.7256094174107411e-02  2.7073173489789014e-02  2.6867142664609888e-02  2.6636360893755668e-02  2.6379011327219617e-02  2.6093158204018273e-02  2.5776560818419291e-02  2.5426860064859096e-02  2.5041332736862005e-02  2.4617017958905273e-02  2.4150569567370737e-02  2.3638276813639243e-02  2.3075969612846525e-02  2.2458914537733205e-02  2.1781837033285768e-02  2.1038636252799777e-02  2.0222556982852195e-02  1.9325573935514217e-02  1.8338827706475234e-02  1.7251788115550996e-02  1.6052421605537402e-02  1.4726419758455117e-02  1.3257401230816932e-02  1.1625610608929504e-02  9.8077630232551605e-03  7.7754936640594017e-03  5.4954628608968039e-03  2.9255994355148643e-03  4.7159444352445918e-03  9.0491879861759571e-03  1.3066363512074665e-02  1.6802579430422709e-02  2.0290502940844373e-02  2.3557236753064814e-02  2.6626965951184647e-02  2.9520746938598630e-02  3.2258786219055466e-02  3.4856054985769692e-02  3.7328698909625917e-02  3.9690744607142454e-02  4.1953600946757222e-02  4.4128850141282469e-02  4.6226879940673010e-02  4.8256877995169492e-02  5.0227462000715282e-02  5.2146827503227779e-02  5.4022497471839889e-02  5.5861174363912913e-02  5.7669595280564860e-02  5.9454007242538576e-02  6.1220347037615502e-02  6.2974200607168990e-02  6.4721151781945596e-02  6.6466209263643786e-02  6.8214520989380439e-02  6.9971087805829071e-02  7.1740731355326409e-02  7.3528267682926432e-02  7.5338338975512328e-02  7.7175640537642046e-02  7.9044861547745829e-02  8.0950625382585475e-02  8.2897665179646099e-02  8.4890697891226052e-02  8.6934480877074574e-02  8.9033900662986262e-02  9.1193877081337929e-02  9.3419413337729393e-02  9.5715717996146921e-02  9.8088019509276161e-02  1.0054177328856836e-01  1.0308254111032851e-01  1.0571609218590960e-01  1.0844837011623235e-01  1.1128550666008322e-01  1.1423387042133050e-01  1.1730005651740083e-01  1.2049090696266827e-01  1.2381353720838706e-01  1.2727533907418251e-01  1.3088400721849278e-01  1.3464755635578149e-01  1.3857432260680771e-01  1.4267300442751116e-01  1.4695269328062158e-01  1.5142285121911431e-01  1.5609335988585366e-01  1.6097456379585140e-01  1.6607723832464238e-01  1.7141268355981634e-01  1.7699264650123647e-01  1.8282949189467387e-01  1.8893608410051108e-01  1.9532592871547280e-01  2.0201312127821106e-01  2.0901243856212051e-01  2.1633932985348034e-01  2.2400996966544434e-01  2.3204128506710175e-01  2.4045102279518010e-01  2.4925772662643772e-01  2.5848085148165428e-01  2.6814075569005796e-01  2.7825875663208427e-01  2.8885719615860245e-01  2.9995946704899534e-01  3.1159007671444006e-01  3.2377469894900779e-01  3.3654023368589431e-01  3.4991485744184614e-01  3.6392809786126329e-01  3.7861089686627397e-01  3.9399565512741935e-01  4.1011634508556460e-01  4.2700855916947128e-01  4.4470958721915060e-01  4.6325851247556232e-01  4.8269628421789901e-01  5.0306581984660526e-01  5.2441209921831944e-01  5.4678225371488720e-01  5.7022567855776429e-01  5.9479414089167693e-01  6.2054189856944852e-01  6.4752581093698225e-01  6.7580546956655041e-01  7.0544334756611504e-01  7.3650488814332749e-01  7.6905872476567572e-01  8.0317676122882598e-01  8.3893441634236265e-01  8.7641068860131000e-01  9.1568844020322770e-01  9.5685451962386081e-01  -6.6331404761970428e-02  1.2908535087019379e-01  -3.8470330447828084e-02  -1.1197424596042722e-01  1.7977365082218535e-01  9.4239766525146207e-02  -2.5006497598682429e-02  -1.7475561108108437e-01  2.7609206480280587e-02  2.4497864555250493e-01  3.2878745482812372e-01  -2.4794832511530696e-01  -1.7507159232672414e-02  2.5594565900696507e-02  7.6287536936362949e-02  2.8093144907232897e-02  -3.3817137851907608e-01  -1.2939762928890699e-02  4.1766103975474783e-01  -4.9309622113791279e-02  -4.4201427171729302e-01  -8.6420897320453952e-02  1.0989002505023276e-01  2.2163717845018353e-02  6.4024017518907614e-02  2.0061695667304286e-02  1.7914445273563520e-02  1.5886286689958860e-02  2.1685678724025572e-02  2.7926161922147551e-02  2.2250316426898884e-03  -2.2406449952960764e-02  5.1357567558935002e-01  -3.0880195251736662e-02  1.4919221688083539e-01  -7.1745011975125992e-04  -5.5125469274465211e-01  -1.4019673136926183e-01  1.9411117612579379e-01  -2.4146053314610424e-01  4.1111487707990629e-01  -4.6071649615396182e-01  1.3595427208957823e-02  -9.3207116541197035e-03  5.4886591290574015e-02  2.2949016811158764e-02  1.7841873772389671e-02  9.6636282142886265e-01  -9.6236956575495836e-01  6.3086188372638985e-01  1.2267749923111212e-03  -2.0951154464780457e-02  -6.5848244333721662e-01  2.8365074882230445e-01  2.0630168045907826e-01  -2.0847502560382936e-01  8.3838256353723689e-02  2.6774689609312567e-02  8.6149803298393324e-03  3.4861922114193511e-03  5.8635382369692202e-01  2.7977807759097015e-02  1.1198630043768169e-02  4.7234312344487508e-02  2.1567738731239797e-03  -6.3006491176085899e-01  -7.7356591113337517e-04  2.7640855693658272e-02  2.3808896684803755e-02  4.8017151107830895e-04  5.2523057976498302e-05  8.5379459870171229e-04  1.7872985163402215e-04  9.6405802515470995e-01  -9.5774878557516263e-01  1.9847934840978482e-04  2.3121665852075972e-04  9.6604903847403611e-01  -6.3286374048326793e-03  -9.6258660185233891e-01  2.5468178534217248e-02  1.2476943228088778e-02  7.5457959217099468e-01  -1.5048525999230808e-02  -7.5133925027520698e-01  3.7127075739224741e-01  -4.3413253262240062e-02  1.6345648784061434e-01  -3.8714178031527896e-01  -5.5973704243171760e-02  -2.8399950838345173e-01  -9.9046306232402875e-02  -7.5792449949060134e-02  1.1890345432318003e-01  1.0182110562045593e-01  3.3636610330968549e-02  6.9103880852772095e-02  4.0933651112889012e-02  2.3905839896604913e-02  7.5877838382267770e-01  -9.6344555865433179e-01  9.7770761734864591e-04  6.5319860041133178e-04  6.3721950504472980e-03  1.8861490042195422e-02  1.6900916562773340e-02  2.0872993713722397e-02  2.8053683194726047e-02  2.7315100556172200e-02  2.4455893274215955e-02  2.6964105222352451e-02  -7.6084423426456704e-01  9.6356581745666181e-01  1.8884564625881180e-04  6.5336098986966369e-05  -8.7228526072896174e-04  3.6958149949255842e-03  2.3171196444201052e-03  1.2072296778707966e-03  9.6337963767936374e-01  -9.6386769773042635e-01  2.7698353841448689e-04  5.8485370941228660e-04  -3.5781325572080791e-03  1.5052649517194585e-02  4.4227266704815454e-05  8.6498546085572920e-04  3.9933217363413024e-03  8.6001766037765714e-01  -8.5623150554337280e-01  2.4276256538693087e-04  -7.8735699593730692e-03  6.9069070472735750e-01  -1.0888632813782113e-02  5.5732740039283057e-01  -1.9224198613503597e-02  -2.2899389343366723e-02  -6.0132019465515263e-01  -2.7182169720146174e-02  -3.3673357609680730e-02  4.5398502099680016e-01  3.0530302817876009e-01  2.6331276548772581e-01  2.2074672799444864e-01  -4.825508246541091